<?xml version="1.0"?>
<VTKFile type="UnstructuredGrid">
  <UnstructuredGrid>
  <Piece NumberOfPoints="13"  NumberOfCells="24">
    <Points>
      <DataArray type="Float64" NumberOfComponents="3" format="ascii">
.000000 50.000000 .000000
-43.301300 25.000000 .000000
-43.301300 -25.000000 .000000
.000000 -50.000000 .000000
43.301300 -25.000000 .000000
43.301300 25.000000 .000000
-12.433826 21.535983 -6.721921
-24.867652 .000000 -6.721919
-12.433826 -21.535983 -6.721921
12.433826 -21.535983 -6.721921
24.867652 -.000000 -6.721919
12.433826 21.535983 -6.721921
-.000000 -.000000 -11.793199
      </DataArray>
    </Points>
    <Cells>
      <DataArray type="Int32" Name="connectivity" format="ascii">
0 6
0 11
1 6
1 7
2 7
2 8
3 8
3 9
4 9
4 10
5 10
5 11
6 7
7 8
8 9
9 10
10 11
11 6
6 12
7 12
8 12
9 12
10 12
11 12
      </DataArray>
      <DataArray type="Int32" Name="offsets" format="ascii">
2
4
6
8
10
12
14
16
18
20
22
24
26
28
30
32
34
36
38
40
42
44
46
48
      </DataArray>
      <DataArray type="UInt8" Name="types" format="ascii">
4
4
4
4
4
4
4
4
4
4
4
4
4
4
4
4
4
4
4
4
4
4
4
4
      </DataArray>
    </Cells>
    <PointData>
      <DataArray type="Float64" NumberOfComponents="3" Name="Displacement" format="ascii">
.000000 .000000 .000000
.000000 .000000 .000000
.000000 .000000 .000000
.000000 .000000 .000000
.000000 .000000 .000000
.000000 .000000 .000000
.066174 -.114617 -12.937921
.132348 .000000 -12.937919
.066174 .114617 -12.937921
-.066174 .114617 -12.937921
-.132348 -.000000 -12.937919
-.066174 -.114617 -12.937921
-.000000 -.000000 -20.009199
      </DataArray>
    </PointData>
    <CellData>
    </CellData>
  </Piece>
  </UnstructuredGrid>
</VTKFile>
