<?xml version="1.0"?>
<VTKFile type="UnstructuredGrid">
  <UnstructuredGrid>
  <Piece NumberOfPoints="13"  NumberOfCells="23">
    <Points>
      <DataArray type="Float64" NumberOfComponents="3" format="ascii">
.000000 .000000 .000000
3.050110 1.235074 .000000
5.984157 3.721889 .000000
8.782318 6.986200 .000000
11.461680 10.705644 .000000
14.060962 14.643109 .000000
14.684620 16.179679 .000000
.000000 1.000000 .000000
2.872861 2.137000 .000000
5.671492 4.485392 .000000
8.375303 7.611232 .000000
10.996663 11.229605 .000000
13.570015 15.119492 .000000
      </DataArray>
    </Points>
    <Cells>
      <DataArray type="Int32" Name="connectivity" format="ascii">
0 1
1 2
2 3
3 4
4 5
5 6
0 7
0 8
1 8
1 9
2 9
2 10
3 10
3 11
4 11
4 12
5 12
7 8
8 9
9 10
10 11
11 12
12 6
      </DataArray>
      <DataArray type="Int32" Name="offsets" format="ascii">
2
4
6
8
10
12
14
16
18
20
22
24
26
28
30
32
34
36
38
40
42
44
46
      </DataArray>
      <DataArray type="UInt8" Name="types" format="ascii">
4
4
4
4
4
4
4
4
4
4
4
4
4
4
4
4
4
4
4
4
4
4
4
      </DataArray>
    </Cells>
    <PointData>
      <DataArray type="Float64" NumberOfComponents="3" Name="Displacement" format="ascii">
.000000 .000000 .000000
.050110 .395688 .000000
-.015843 1.257812 .000000
-.217682 2.448438 .000000
-.538320 3.850662 .000000
-.939038 5.363215 .000000
-1.315380 5.794830 .000000
.000000 .000000 .000000
-.127139 .373393 .000000
-.328508 1.203026 .000000
-.624697 2.358473 .000000
-1.003337 3.733387 .000000
-1.429985 5.233018 .000000
      </DataArray>
    </PointData>
    <CellData>
    </CellData>
  </Piece>
  </UnstructuredGrid>
</VTKFile>
