<?xml version="1.0"?>
<VTKFile type="UnstructuredGrid">
  <UnstructuredGrid>
  <Piece NumberOfPoints="13"  NumberOfCells="23">
    <Points>
      <DataArray type="Float64" NumberOfComponents="3" format="ascii">
.000000 .000000 .000000
3.022552 1.649474 .000000
5.684019 4.856325 .000000
7.982432 8.960407 .000000
9.997207 13.554063 .000000
11.838771 18.365535 .000000
12.069233 20.070682 .000000
.000000 1.000000 .000000
2.701279 2.501843 .000000
5.140582 5.501807 .000000
7.305764 9.403345 .000000
9.248160 13.851933 .000000
11.059648 18.595182 .000000
      </DataArray>
    </Points>
    <Cells>
      <DataArray type="Int32" Name="connectivity" format="ascii">
0 1
1 2
2 3
3 4
4 5
5 6
0 7
0 8
1 8
1 9
2 9
2 10
3 10
3 11
4 11
4 12
5 12
7 8
8 9
9 10
10 11
11 12
12 6
      </DataArray>
      <DataArray type="Int32" Name="offsets" format="ascii">
2
4
6
8
10
12
14
16
18
20
22
24
26
28
30
32
34
36
38
40
42
44
46
      </DataArray>
      <DataArray type="UInt8" Name="types" format="ascii">
4
4
4
4
4
4
4
4
4
4
4
4
4
4
4
4
4
4
4
4
4
4
4
      </DataArray>
    </Cells>
    <PointData>
      <DataArray type="Float64" NumberOfComponents="3" Name="Displacement" format="ascii">
.000000 .000000 .000000
.022552 .810088 .000000
-.315981 2.392248 .000000
-1.017568 4.422645 .000000
-2.002793 6.699081 .000000
-3.161229 9.085641 .000000
-3.930767 9.685833 .000000
.000000 .000000 .000000
-.298721 .738236 .000000
-.859418 2.219441 .000000
-1.694236 4.150586 .000000
-2.751840 6.355715 .000000
-3.940352 8.708708 .000000
      </DataArray>
    </PointData>
    <CellData>
    </CellData>
  </Piece>
  </UnstructuredGrid>
</VTKFile>
