<?xml version="1.0"?>
<VTKFile type="UnstructuredGrid">
  <UnstructuredGrid>
  <Piece NumberOfPoints="13"  NumberOfCells="23">
    <Points>
      <DataArray type="Float64" NumberOfComponents="3" format="ascii">
.000000 .000000 .000000
3.032177 1.020226 .000000
6.033251 3.055366 .000000
8.996937 5.711910 .000000
11.926195 8.729785 .000000
14.830231 11.920349 .000000
15.674638 13.260172 .000000
.000000 1.000000 .000000
2.946532 1.938786 .000000
5.880214 3.860295 .000000
8.794750 6.404971 .000000
11.692572 9.342258 .000000
14.582308 12.495150 .000000
      </DataArray>
    </Points>
    <Cells>
      <DataArray type="Int32" Name="connectivity" format="ascii">
0 1
1 2
2 3
3 4
4 5
5 6
0 7
0 8
1 8
1 9
2 9
2 10
3 10
3 11
4 11
4 12
5 12
7 8
8 9
9 10
10 11
11 12
12 6
      </DataArray>
      <DataArray type="Int32" Name="offsets" format="ascii">
2
4
6
8
10
12
14
16
18
20
22
24
26
28
30
32
34
36
38
40
42
44
46
      </DataArray>
      <DataArray type="UInt8" Name="types" format="ascii">
4
4
4
4
4
4
4
4
4
4
4
4
4
4
4
4
4
4
4
4
4
4
4
      </DataArray>
    </Cells>
    <PointData>
      <DataArray type="Float64" NumberOfComponents="3" Name="Displacement" format="ascii">
.000000 .000000 .000000
.032177 .180839 .000000
.033251 .591289 .000000
-.003063 1.174148 .000000
-.073805 1.874803 .000000
-.169769 2.640455 .000000
-.325362 2.875323 .000000
.000000 .000000 .000000
-.053468 .175179 .000000
-.119786 .577930 .000000
-.205250 1.152212 .000000
-.307428 1.846039 .000000
-.417692 2.608675 .000000
      </DataArray>
    </PointData>
    <CellData>
    </CellData>
  </Piece>
  </UnstructuredGrid>
</VTKFile>
