<?xml version="1.0"?>
<VTKFile type="UnstructuredGrid">
  <UnstructuredGrid>
  <Piece NumberOfPoints="13"  NumberOfCells="23">
    <Points>
      <DataArray type="Float64" NumberOfComponents="3" format="ascii">
.000000 .000000 .000000
3.048695 1.200122 .000000
5.998035 3.616677 .000000
8.830073 6.789724 .000000
11.558644 10.406629 .000000
14.216729 14.236790 .000000
14.877074 15.747386 .000000
.000000 1.000000 .000000
2.885550 2.105341 .000000
5.709492 4.388351 .000000
8.453344 7.428035 .000000
11.127265 10.947715 .000000
13.760820 14.732160 .000000
      </DataArray>
    </Points>
    <Cells>
      <DataArray type="Int32" Name="connectivity" format="ascii">
0 1
1 2
2 3
3 4
4 5
5 6
0 7
0 8
1 8
1 9
2 9
2 10
3 10
3 11
4 11
4 12
5 12
7 8
8 9
9 10
10 11
11 12
12 6
      </DataArray>
      <DataArray type="Int32" Name="offsets" format="ascii">
2
4
6
8
10
12
14
16
18
20
22
24
26
28
30
32
34
36
38
40
42
44
46
      </DataArray>
      <DataArray type="UInt8" Name="types" format="ascii">
4
4
4
4
4
4
4
4
4
4
4
4
4
4
4
4
4
4
4
4
4
4
4
      </DataArray>
    </Cells>
    <PointData>
      <DataArray type="Float64" NumberOfComponents="3" Name="Displacement" format="ascii">
.000000 .000000 .000000
.048695 .360735 .000000
-.001965 1.152600 .000000
-.169927 2.251962 .000000
-.441356 3.551647 .000000
-.783271 4.956896 .000000
-1.122926 5.362537 .000000
.000000 .000000 .000000
-.114450 .341734 .000000
-.290508 1.105986 .000000
-.546656 2.175276 .000000
-.872735 3.451496 .000000
-1.239180 4.845686 .000000
      </DataArray>
    </PointData>
    <CellData>
    </CellData>
  </Piece>
  </UnstructuredGrid>
</VTKFile>
