<?xml version="1.0"?>
<VTKFile type="UnstructuredGrid">
  <UnstructuredGrid>
  <Piece NumberOfPoints="13"  NumberOfCells="23">
    <Points>
      <DataArray type="Float64" NumberOfComponents="3" format="ascii">
.000000 .000000 .000000
3.045859 .313549 .000000
6.013300 1.008471 .000000
8.887290 1.979731 .000000
11.677879 3.133613 .000000
14.410773 4.385041 .000000
15.120553 5.252000 .000000
.000000 1.000000 .000000
2.902252 1.298664 .000000
5.758488 1.972110 .000000
8.553367 2.919811 .000000
11.294443 4.055194 .000000
14.005006 5.297973 .000000
      </DataArray>
    </Points>
    <Cells>
      <DataArray type="Int32" Name="connectivity" format="ascii">
0 1
1 2
2 3
3 4
4 5
5 6
0 7
0 8
1 8
1 9
2 9
2 10
3 10
3 11
4 11
4 12
5 12
7 8
8 9
9 10
10 11
11 12
12 6
      </DataArray>
      <DataArray type="Int32" Name="offsets" format="ascii">
2
4
6
8
10
12
14
16
18
20
22
24
26
28
30
32
34
36
38
40
42
44
46
      </DataArray>
      <DataArray type="UInt8" Name="types" format="ascii">
4
4
4
4
4
4
4
4
4
4
4
4
4
4
4
4
4
4
4
4
4
4
4
      </DataArray>
    </Cells>
    <PointData>
      <DataArray type="Float64" NumberOfComponents="3" Name="Displacement" format="ascii">
.000000 .000000 .000000
.045859 .313549 .000000
.013300 1.008471 .000000
-.112710 1.979731 .000000
-.322121 3.133613 .000000
-.589227 4.385041 .000000
-.879447 4.752000 .000000
.000000 .000000 .000000
-.097748 .298664 .000000
-.241512 .972110 .000000
-.446633 1.919811 .000000
-.705557 3.055194 .000000
-.994994 4.297973 .000000
      </DataArray>
      <DataArray type="Float64" NumberOfComponents="3" Name="Reactions" format="ascii">
26.213330 4.431176 .000000
.000000 .000000 .000000
-.000000 .000000 .000000
-.000000 .000000 .000000
.000000 .000000 .000000
-.000000 .000000 .000000
-.000000 -1.733622 .000000
-26.213330 -2.697554 .000000
.000000 -.000000 .000000
-.000000 -.000000 .000000
-.000000 -.000000 .000000
.000000 .000000 .000000
.000000 -.000000 .000000
      </DataArray>
    </PointData>
    <CellData>
    </CellData>
  </Piece>
  </UnstructuredGrid>
</VTKFile>
