<?xml version="1.0"?>
<VTKFile type="UnstructuredGrid">
  <UnstructuredGrid>
  <Piece NumberOfPoints="13"  NumberOfCells="23">
    <Points>
      <DataArray type="Float64" NumberOfComponents="3" format="ascii">
.000000 .000000 .000000
3.039758 .682306 .000000
5.799235 2.065784 .000000
8.261317 3.883923 .000000
10.482887 5.953391 .000000
12.553614 8.141264 .000000
12.892940 9.212000 .000000
.000000 1.000000 .000000
2.758521 1.627188 .000000
5.316477 2.931682 .000000
7.651215 4.669472 .000000
9.800639 6.679688 .000000
11.840573 8.839472 .000000
      </DataArray>
    </Points>
    <Cells>
      <DataArray type="Int32" Name="connectivity" format="ascii">
0 1
1 2
2 3
3 4
4 5
5 6
0 7
0 8
1 8
1 9
2 9
2 10
3 10
3 11
4 11
4 12
5 12
7 8
8 9
9 10
10 11
11 12
12 6
      </DataArray>
      <DataArray type="Int32" Name="offsets" format="ascii">
2
4
6
8
10
12
14
16
18
20
22
24
26
28
30
32
34
36
38
40
42
44
46
      </DataArray>
      <DataArray type="UInt8" Name="types" format="ascii">
4
4
4
4
4
4
4
4
4
4
4
4
4
4
4
4
4
4
4
4
4
4
4
      </DataArray>
    </Cells>
    <PointData>
      <DataArray type="Float64" NumberOfComponents="3" Name="Displacement" format="ascii">
.000000 .000000 .000000
.039758 .682306 .000000
-.200765 2.065784 .000000
-.738683 3.883923 .000000
-1.517113 5.953391 .000000
-2.446386 8.141264 .000000
-3.107060 8.712000 .000000
.000000 .000000 .000000
-.241479 .627188 .000000
-.683523 1.931682 .000000
-1.348785 3.669472 .000000
-2.199361 5.679688 .000000
-3.159427 7.839472 .000000
      </DataArray>
      <DataArray type="Float64" NumberOfComponents="3" Name="Reactions" format="ascii">
50.940495 15.533062 .000000
.000000 .000000 .000000
-.000000 .000000 .000000
-.000000 .000000 .000000
.000000 .000000 .000000
-.000000 .000000 .000000
-.000000 -3.951038 .000000
-50.940495 -11.582024 .000000
-.000000 -.000000 .000000
-.000000 -.000000 .000000
-.000000 -.000000 .000000
.000000 .000000 .000000
.000000 -.000000 .000000
      </DataArray>
    </PointData>
    <CellData>
    </CellData>
  </Piece>
  </UnstructuredGrid>
</VTKFile>
