<?xml version="1.0"?>
<VTKFile type="UnstructuredGrid">
  <UnstructuredGrid>
  <Piece NumberOfPoints="13"  NumberOfCells="23">
    <Points>
      <DataArray type="Float64" NumberOfComponents="3" format="ascii">
.000000 .000000 .000000
3.027479 .147919 .000000
6.032603 .485377 .000000
9.010975 .966104 .000000
11.964518 1.545346 .000000
14.899486 2.179306 .000000
15.775325 2.876000 .000000
.000000 1.000000 .000000
2.956879 1.143935 .000000
5.906299 1.476155 .000000
8.843868 1.951031 .000000
11.771217 2.525603 .000000
14.694256 3.157570 .000000
      </DataArray>
    </Points>
    <Cells>
      <DataArray type="Int32" Name="connectivity" format="ascii">
0 1
1 2
2 3
3 4
4 5
5 6
0 7
0 8
1 8
1 9
2 9
2 10
3 10
3 11
4 11
4 12
5 12
7 8
8 9
9 10
10 11
11 12
12 6
      </DataArray>
      <DataArray type="Int32" Name="offsets" format="ascii">
2
4
6
8
10
12
14
16
18
20
22
24
26
28
30
32
34
36
38
40
42
44
46
      </DataArray>
      <DataArray type="UInt8" Name="types" format="ascii">
4
4
4
4
4
4
4
4
4
4
4
4
4
4
4
4
4
4
4
4
4
4
4
      </DataArray>
    </Cells>
    <PointData>
      <DataArray type="Float64" NumberOfComponents="3" Name="Displacement" format="ascii">
.000000 .000000 .000000
.027479 .147919 .000000
.032603 .485377 .000000
.010975 .966104 .000000
-.035482 1.545346 .000000
-.100514 2.179306 .000000
-.224675 2.376000 .000000
.000000 .000000 .000000
-.043121 .143935 .000000
-.093701 .476155 .000000
-.156132 .951031 .000000
-.228783 1.525603 .000000
-.305744 2.157570 .000000
      </DataArray>
      <DataArray type="Float64" NumberOfComponents="3" Name="Reactions" format="ascii">
12.930766 1.449125 .000000
.000000 .000000 .000000
-.000000 .000000 .000000
-.000000 .000000 .000000
.000000 .000000 .000000
-.000000 .000000 .000000
-.000000 -.819683 .000000
-12.930766 -.629442 .000000
.000000 -.000000 .000000
-.000000 -.000000 .000000
-.000000 -.000000 .000000
.000000 -.000000 .000000
.000000 -.000000 .000000
      </DataArray>
    </PointData>
    <CellData>
    </CellData>
  </Piece>
  </UnstructuredGrid>
</VTKFile>
