<?xml version="1.0"?>
<VTKFile type="UnstructuredGrid">
  <UnstructuredGrid>
  <Piece NumberOfPoints="13"  NumberOfCells="23">
    <Points>
      <DataArray type="Float64" NumberOfComponents="3" format="ascii">
.000000 .000000 .000000
3.050584 .513632 .000000
5.922381 1.602512 .000000
8.592080 3.077557 .000000
11.090553 4.791160 .000000
13.477257 6.624398 .000000
13.978919 7.628000 .000000
.000000 1.000000 .000000
2.828054 1.478915 .000000
5.533782 2.517214 .000000
8.091871 3.938732 .000000
10.523799 5.611576 .000000
12.881238 7.425422 .000000
      </DataArray>
    </Points>
    <Cells>
      <DataArray type="Int32" Name="connectivity" format="ascii">
0 1
1 2
2 3
3 4
4 5
5 6
0 7
0 8
1 8
1 9
2 9
2 10
3 10
3 11
4 11
4 12
5 12
7 8
8 9
9 10
10 11
11 12
12 6
      </DataArray>
      <DataArray type="Int32" Name="offsets" format="ascii">
2
4
6
8
10
12
14
16
18
20
22
24
26
28
30
32
34
36
38
40
42
44
46
      </DataArray>
      <DataArray type="UInt8" Name="types" format="ascii">
4
4
4
4
4
4
4
4
4
4
4
4
4
4
4
4
4
4
4
4
4
4
4
      </DataArray>
    </Cells>
    <PointData>
      <DataArray type="Float64" NumberOfComponents="3" Name="Displacement" format="ascii">
.000000 .000000 .000000
.050584 .513632 .000000
-.077619 1.602512 .000000
-.407920 3.077557 .000000
-.909447 4.791160 .000000
-1.522743 6.624398 .000000
-2.021081 7.128000 .000000
.000000 .000000 .000000
-.171946 .478915 .000000
-.466218 1.517214 .000000
-.908129 2.938732 .000000
-1.476201 4.611576 .000000
-2.118762 6.425422 .000000
      </DataArray>
      <DataArray type="Float64" NumberOfComponents="3" Name="Reactions" format="ascii">
40.469955 9.748431 .000000
.000000 .000000 .000000
-.000000 .000000 .000000
-.000000 .000000 .000000
.000000 .000000 .000000
-.000000 .000000 .000000
-.000000 -2.895070 .000000
-40.469955 -6.853360 .000000
-.000000 -.000000 .000000
-.000000 -.000000 .000000
-.000000 -.000000 .000000
.000000 .000000 .000000
.000000 -.000000 .000000
      </DataArray>
    </PointData>
    <CellData>
    </CellData>
  </Piece>
  </UnstructuredGrid>
</VTKFile>
