<?xml version="1.0"?>
<VTKFile type="UnstructuredGrid">
  <UnstructuredGrid>
  <Piece NumberOfPoints="13"  NumberOfCells="23">
    <Points>
      <DataArray type="Float64" NumberOfComponents="3" format="ascii">
.000000 .000000 .000000
3.043553 .284138 .000000
6.020719 .917468 .000000
8.918412 1.806120 .000000
11.744676 2.864915 .000000
14.521005 4.015315 .000000
15.261366 4.856000 .000000
.000000 1.000000 .000000
2.912412 1.271612 .000000
5.787597 1.886994 .000000
8.612270 2.755878 .000000
11.392574 3.799096 .000000
14.148123 4.942263 .000000
      </DataArray>
    </Points>
    <Cells>
      <DataArray type="Int32" Name="connectivity" format="ascii">
0 1
1 2
2 3
3 4
4 5
5 6
0 7
0 8
1 8
1 9
2 9
2 10
3 10
3 11
4 11
4 12
5 12
7 8
8 9
9 10
10 11
11 12
12 6
      </DataArray>
      <DataArray type="Int32" Name="offsets" format="ascii">
2
4
6
8
10
12
14
16
18
20
22
24
26
28
30
32
34
36
38
40
42
44
46
      </DataArray>
      <DataArray type="UInt8" Name="types" format="ascii">
4
4
4
4
4
4
4
4
4
4
4
4
4
4
4
4
4
4
4
4
4
4
4
      </DataArray>
    </Cells>
    <PointData>
      <DataArray type="Float64" NumberOfComponents="3" Name="Displacement" format="ascii">
.000000 .000000 .000000
.043553 .284138 .000000
.020719 .917468 .000000
-.081588 1.806120 .000000
-.255324 2.864915 .000000
-.478995 4.015315 .000000
-.738634 4.356000 .000000
.000000 .000000 .000000
-.087588 .271612 .000000
-.212403 .886994 .000000
-.387730 1.755878 .000000
-.607426 2.799096 .000000
-.851877 3.942263 .000000
      </DataArray>
      <DataArray type="Float64" NumberOfComponents="3" Name="Reactions" format="ascii">
23.951102 3.803075 .000000
.000000 .000000 .000000
-.000000 .000000 .000000
-.000000 .000000 .000000
.000000 .000000 .000000
-.000000 .000000 .000000
-.000000 -1.569394 .000000
-23.951102 -2.233681 .000000
.000000 -.000000 .000000
-.000000 -.000000 .000000
-.000000 -.000000 .000000
.000000 .000000 .000000
.000000 -.000000 .000000
      </DataArray>
    </PointData>
    <CellData>
    </CellData>
  </Piece>
  </UnstructuredGrid>
</VTKFile>
