<?xml version="1.0"?>
<VTKFile type="UnstructuredGrid">
  <UnstructuredGrid>
  <Piece NumberOfPoints="13"  NumberOfCells="23">
    <Points>
      <DataArray type="Float64" NumberOfComponents="3" format="ascii">
.000000 .000000 .000000
3.026639 .784369 .000000
5.708490 2.328266 .000000
8.039813 4.319059 .000000
10.095411 6.557739 .000000
11.981762 8.908547 .000000
12.233043 10.004000 .000000
.000000 1.000000 .000000
2.713136 1.715943 .000000
5.176569 3.163281 .000000
7.375485 5.058467 .000000
9.358530 7.228093 .000000
11.214563 9.546343 .000000
      </DataArray>
    </Points>
    <Cells>
      <DataArray type="Int32" Name="connectivity" format="ascii">
0 1
1 2
2 3
3 4
4 5
5 6
0 7
0 8
1 8
1 9
2 9
2 10
3 10
3 11
4 11
4 12
5 12
7 8
8 9
9 10
10 11
11 12
12 6
      </DataArray>
      <DataArray type="Int32" Name="offsets" format="ascii">
2
4
6
8
10
12
14
16
18
20
22
24
26
28
30
32
34
36
38
40
42
44
46
      </DataArray>
      <DataArray type="UInt8" Name="types" format="ascii">
4
4
4
4
4
4
4
4
4
4
4
4
4
4
4
4
4
4
4
4
4
4
4
      </DataArray>
    </Cells>
    <PointData>
      <DataArray type="Float64" NumberOfComponents="3" Name="Displacement" format="ascii">
.000000 .000000 .000000
.026639 .784369 .000000
-.291510 2.328266 .000000
-.960187 4.319059 .000000
-1.904589 6.557739 .000000
-3.018238 8.908547 .000000
-3.766957 9.504000 .000000
.000000 .000000 .000000
-.286864 .715943 .000000
-.823431 2.163281 .000000
-1.624515 4.058467 .000000
-2.641470 6.228093 .000000
-3.785437 8.546343 .000000
      </DataArray>
      <DataArray type="Float64" NumberOfComponents="3" Name="Reactions" format="ascii">
56.589911 19.558946 .000000
.000000 .000000 .000000
-.000000 .000000 .000000
-.000000 .000000 .000000
.000000 .000000 .000000
-.000000 .000000 .000000
-.000000 -4.625988 .000000
-56.589911 -14.932958 .000000
-.000000 -.000000 .000000
-.000000 -.000000 .000000
.000000 -.000000 .000000
.000000 .000000 .000000
.000000 -.000000 .000000
      </DataArray>
    </PointData>
    <CellData>
    </CellData>
  </Piece>
  </UnstructuredGrid>
</VTKFile>
