<?xml version="1.0"?>
<VTKFile type="UnstructuredGrid">
  <UnstructuredGrid>
  <Piece NumberOfPoints="13"  NumberOfCells="23">
    <Points>
      <DataArray type="Float64" NumberOfComponents="3" format="ascii">
.000000 .000000 .000000
3.050463 .407745 .000000
5.978880 1.293793 .000000
8.764852 2.515172 .000000
11.426679 3.951680 .000000
14.005116 5.499938 .000000
14.616139 6.440000 .000000
.000000 1.000000 .000000
2.868421 1.384270 .000000
5.658064 2.236084 .000000
8.347672 3.420478 .000000
10.950430 4.828325 .000000
13.502499 6.363007 .000000
      </DataArray>
    </Points>
    <Cells>
      <DataArray type="Int32" Name="connectivity" format="ascii">
0 1
1 2
2 3
3 4
4 5
5 6
0 7
0 8
1 8
1 9
2 9
2 10
3 10
3 11
4 11
4 12
5 12
7 8
8 9
9 10
10 11
11 12
12 6
      </DataArray>
      <DataArray type="Int32" Name="offsets" format="ascii">
2
4
6
8
10
12
14
16
18
20
22
24
26
28
30
32
34
36
38
40
42
44
46
      </DataArray>
      <DataArray type="UInt8" Name="types" format="ascii">
4
4
4
4
4
4
4
4
4
4
4
4
4
4
4
4
4
4
4
4
4
4
4
      </DataArray>
    </Cells>
    <PointData>
      <DataArray type="Float64" NumberOfComponents="3" Name="Displacement" format="ascii">
.000000 .000000 .000000
.050463 .407745 .000000
-.021120 1.293793 .000000
-.235148 2.515172 .000000
-.573321 3.951680 .000000
-.994884 5.499938 .000000
-1.383861 5.940000 .000000
.000000 .000000 .000000
-.131579 .384270 .000000
-.341936 1.236084 .000000
-.652328 2.420478 .000000
-1.049570 3.828325 .000000
-1.497501 5.363007 .000000
      </DataArray>
      <DataArray type="Float64" NumberOfComponents="3" Name="Reactions" format="ascii">
33.172515 6.713560 .000000
.000000 .000000 .000000
-.000000 .000000 .000000
-.000000 .000000 .000000
.000000 .000000 .000000
-.000000 .000000 .000000
-.000000 -2.269581 .000000
-33.172515 -4.443978 .000000
-.000000 -.000000 .000000
-.000000 -.000000 .000000
-.000000 -.000000 .000000
.000000 .000000 .000000
.000000 -.000000 .000000
      </DataArray>
    </PointData>
    <CellData>
    </CellData>
  </Piece>
  </UnstructuredGrid>
</VTKFile>
