<?xml version="1.0"?>
<VTKFile type="UnstructuredGrid">
  <UnstructuredGrid>
  <Piece NumberOfPoints="13"  NumberOfCells="23">
    <Points>
      <DataArray type="Float64" NumberOfComponents="3" format="ascii">
.000000 .000000 .000000
3.049353 .375240 .000000
5.992535 1.196424 .000000
8.810787 2.334038 .000000
11.519245 3.676843 .000000
14.153240 5.127309 .000000
14.798356 6.044000 .000000
.000000 1.000000 .000000
2.880317 1.354896 .000000
5.693893 2.146475 .000000
8.421342 3.251924 .000000
11.073712 4.569682 .000000
13.682573 6.008322 .000000
      </DataArray>
    </Points>
    <Cells>
      <DataArray type="Int32" Name="connectivity" format="ascii">
0 1
1 2
2 3
3 4
4 5
5 6
0 7
0 8
1 8
1 9
2 9
2 10
3 10
3 11
4 11
4 12
5 12
7 8
8 9
9 10
10 11
11 12
12 6
      </DataArray>
      <DataArray type="Int32" Name="offsets" format="ascii">
2
4
6
8
10
12
14
16
18
20
22
24
26
28
30
32
34
36
38
40
42
44
46
      </DataArray>
      <DataArray type="UInt8" Name="types" format="ascii">
4
4
4
4
4
4
4
4
4
4
4
4
4
4
4
4
4
4
4
4
4
4
4
      </DataArray>
    </Cells>
    <PointData>
      <DataArray type="Float64" NumberOfComponents="3" Name="Displacement" format="ascii">
.000000 .000000 .000000
.049353 .375240 .000000
-.007465 1.196424 .000000
-.189213 2.334038 .000000
-.480755 3.676843 .000000
-.846760 5.127309 .000000
-1.201644 5.544000 .000000
.000000 .000000 .000000
-.119683 .354896 .000000
-.306107 1.146475 .000000
-.578658 2.251924 .000000
-.926288 3.569682 .000000
-1.317427 5.008322 .000000
      </DataArray>
      <DataArray type="Float64" NumberOfComponents="3" Name="Reactions" format="ascii">
30.820515 5.880219 .000000
.000000 .000000 .000000
-.000000 .000000 .000000
-.000000 .000000 .000000
.000000 .000000 .000000
-.000000 .000000 .000000
-.000000 -2.082699 .000000
-30.820515 -3.797521 .000000
-.000000 -.000000 .000000
-.000000 -.000000 .000000
-.000000 -.000000 .000000
.000000 .000000 .000000
.000000 -.000000 .000000
      </DataArray>
    </PointData>
    <CellData>
    </CellData>
  </Piece>
  </UnstructuredGrid>
</VTKFile>
