<?xml version="1.0"?>
<VTKFile type="UnstructuredGrid">
  <UnstructuredGrid>
  <Piece NumberOfPoints="13"  NumberOfCells="23">
    <Points>
      <DataArray type="Float64" NumberOfComponents="3" format="ascii">
.000000 .000000 .000000
3.051082 .441536 .000000
5.962794 1.393742 .000000
8.713357 2.699284 .000000
11.324715 4.228887 .000000
13.843453 5.873627 .000000
14.419205 6.836000 .000000
.000000 1.000000 .000000
2.855809 1.414637 .000000
5.619607 2.327584 .000000
8.268467 3.590973 .000000
10.818003 5.088085 .000000
13.309266 6.717399 .000000
      </DataArray>
    </Points>
    <Cells>
      <DataArray type="Int32" Name="connectivity" format="ascii">
0 1
1 2
2 3
3 4
4 5
5 6
0 7
0 8
1 8
1 9
2 9
2 10
3 10
3 11
4 11
4 12
5 12
7 8
8 9
9 10
10 11
11 12
12 6
      </DataArray>
      <DataArray type="Int32" Name="offsets" format="ascii">
2
4
6
8
10
12
14
16
18
20
22
24
26
28
30
32
34
36
38
40
42
44
46
      </DataArray>
      <DataArray type="UInt8" Name="types" format="ascii">
4
4
4
4
4
4
4
4
4
4
4
4
4
4
4
4
4
4
4
4
4
4
4
      </DataArray>
    </Cells>
    <PointData>
      <DataArray type="Float64" NumberOfComponents="3" Name="Displacement" format="ascii">
.000000 .000000 .000000
.051082 .441536 .000000
-.037206 1.393742 .000000
-.286643 2.699284 .000000
-.675285 4.228887 .000000
-1.156547 5.873627 .000000
-1.580795 6.336000 .000000
.000000 .000000 .000000
-.144191 .414637 .000000
-.380393 1.327584 .000000
-.731533 2.590973 .000000
-1.181997 4.088085 .000000
-1.690734 5.717399 .000000
      </DataArray>
      <DataArray type="Float64" NumberOfComponents="3" Name="Reactions" format="ascii">
35.561905 7.629544 .000000
.000000 .000000 .000000
-.000000 .000000 .000000
-.000000 .000000 .000000
.000000 .000000 .000000
-.000000 .000000 .000000
-.000000 -2.466288 .000000
-35.561905 -5.163256 .000000
-.000000 -.000000 .000000
-.000000 -.000000 .000000
-.000000 -.000000 .000000
.000000 .000000 .000000
.000000 -.000000 .000000
      </DataArray>
    </PointData>
    <CellData>
    </CellData>
  </Piece>
  </UnstructuredGrid>
</VTKFile>
