<?xml version="1.0"?>
<VTKFile type="UnstructuredGrid">
  <UnstructuredGrid>
  <Piece NumberOfPoints="13"  NumberOfCells="23">
    <Points>
      <DataArray type="Float64" NumberOfComponents="3" format="ascii">
.000000 .000000 .000000
3.044049 .636342 .000000
5.836388 1.943138 .000000
8.356697 3.675099 .000000
10.654196 5.657485 .000000
12.810504 7.759956 .000000
13.192166 8.816000 .000000
.000000 1.000000 .000000
2.778125 1.587019 .000000
5.377649 2.822723 .000000
7.773931 4.481530 .000000
10.000133 6.409477 .000000
12.125741 8.486093 .000000
      </DataArray>
    </Points>
    <Cells>
      <DataArray type="Int32" Name="connectivity" format="ascii">
0 1
1 2
2 3
3 4
4 5
5 6
0 7
0 8
1 8
1 9
2 9
2 10
3 10
3 11
4 11
4 12
5 12
7 8
8 9
9 10
10 11
11 12
12 6
      </DataArray>
      <DataArray type="Int32" Name="offsets" format="ascii">
2
4
6
8
10
12
14
16
18
20
22
24
26
28
30
32
34
36
38
40
42
44
46
      </DataArray>
      <DataArray type="UInt8" Name="types" format="ascii">
4
4
4
4
4
4
4
4
4
4
4
4
4
4
4
4
4
4
4
4
4
4
4
      </DataArray>
    </Cells>
    <PointData>
      <DataArray type="Float64" NumberOfComponents="3" Name="Displacement" format="ascii">
.000000 .000000 .000000
.044049 .636342 .000000
-.163612 1.943138 .000000
-.643303 3.675099 .000000
-1.345804 5.657485 .000000
-2.189496 7.759956 .000000
-2.807834 8.316000 .000000
.000000 .000000 .000000
-.221875 .587019 .000000
-.622351 1.822723 .000000
-1.226069 3.481530 .000000
-1.999867 5.409477 .000000
-2.874259 7.486093 .000000
      </DataArray>
      <DataArray type="Float64" NumberOfComponents="3" Name="Reactions" format="ascii">
48.227688 13.846322 .000000
.000000 .000000 .000000
-.000000 .000000 .000000
-.000000 .000000 .000000
.000000 .000000 .000000
-.000000 .000000 .000000
-.000000 -3.655782 .000000
-48.227688 -10.190539 .000000
-.000000 -.000000 .000000
-.000000 -.000000 .000000
-.000000 -.000000 .000000
.000000 .000000 .000000
.000000 -.000000 .000000
      </DataArray>
    </PointData>
    <CellData>
    </CellData>
  </Piece>
  </UnstructuredGrid>
</VTKFile>
