<?xml version="1.0"?>
<VTKFile type="UnstructuredGrid">
  <UnstructuredGrid>
  <Piece NumberOfPoints="13"  NumberOfCells="23">
    <Points>
      <DataArray type="Float64" NumberOfComponents="3" format="ascii">
.000000 .000000 .000000
3.049296 .552338 .000000
5.897475 1.711991 .000000
8.521341 3.272351 .000000
10.957166 5.076642 .000000
13.271430 7.001597 .000000
13.734271 8.024000 .000000
.000000 1.000000 .000000
2.812676 1.513171 .000000
5.485789 2.615904 .000000
7.993542 4.116530 .000000
10.360901 5.875655 .000000
12.645242 7.779120 .000000
      </DataArray>
    </Points>
    <Cells>
      <DataArray type="Int32" Name="connectivity" format="ascii">
0 1
1 2
2 3
3 4
4 5
5 6
0 7
0 8
1 8
1 9
2 9
2 10
3 10
3 11
4 11
4 12
5 12
7 8
8 9
9 10
10 11
11 12
12 6
      </DataArray>
      <DataArray type="Int32" Name="offsets" format="ascii">
2
4
6
8
10
12
14
16
18
20
22
24
26
28
30
32
34
36
38
40
42
44
46
      </DataArray>
      <DataArray type="UInt8" Name="types" format="ascii">
4
4
4
4
4
4
4
4
4
4
4
4
4
4
4
4
4
4
4
4
4
4
4
      </DataArray>
    </Cells>
    <PointData>
      <DataArray type="Float64" NumberOfComponents="3" Name="Displacement" format="ascii">
.000000 .000000 .000000
.049296 .552338 .000000
-.102525 1.711991 .000000
-.478659 3.272351 .000000
-1.042834 5.076642 .000000
-1.728570 7.001597 .000000
-2.265729 7.524000 .000000
.000000 .000000 .000000
-.187324 .513171 .000000
-.514211 1.615904 .000000
-1.006458 3.116530 .000000
-1.639099 4.875655 .000000
-2.354758 6.779120 .000000
      </DataArray>
      <DataArray type="Float64" NumberOfComponents="3" Name="Reactions" format="ascii">
42.997961 10.975655 .000000
.000000 .000000 .000000
-.000000 .000000 .000000
-.000000 .000000 .000000
.000000 .000000 .000000
-.000000 .000000 .000000
-.000000 -3.130706 .000000
-42.997961 -7.844950 .000000
-.000000 -.000000 .000000
-.000000 -.000000 .000000
-.000000 -.000000 .000000
.000000 .000000 .000000
.000000 -.000000 .000000
      </DataArray>
    </PointData>
    <CellData>
    </CellData>
  </Piece>
  </UnstructuredGrid>
</VTKFile>
