<?xml version="1.0"?>
<VTKFile type="UnstructuredGrid">
  <UnstructuredGrid>
  <Piece NumberOfPoints="13"  NumberOfCells="23">
    <Points>
      <DataArray type="Float64" NumberOfComponents="3" format="ascii">
.000000 .000000 .000000
3.051148 .476770 .000000
5.944049 1.496545 .000000
8.655915 2.886646 .000000
11.212859 4.508648 .000000
13.667704 6.248428 .000000
14.207003 7.232000 .000000
.000000 1.000000 .000000
2.842389 1.446132 .000000
5.578276 2.421206 .000000
8.183345 3.763639 .000000
10.675969 5.349113 .000000
13.102368 7.071527 .000000
      </DataArray>
    </Points>
    <Cells>
      <DataArray type="Int32" Name="connectivity" format="ascii">
0 1
1 2
2 3
3 4
4 5
5 6
0 7
0 8
1 8
1 9
2 9
2 10
3 10
3 11
4 11
4 12
5 12
7 8
8 9
9 10
10 11
11 12
12 6
      </DataArray>
      <DataArray type="Int32" Name="offsets" format="ascii">
2
4
6
8
10
12
14
16
18
20
22
24
26
28
30
32
34
36
38
40
42
44
46
      </DataArray>
      <DataArray type="UInt8" Name="types" format="ascii">
4
4
4
4
4
4
4
4
4
4
4
4
4
4
4
4
4
4
4
4
4
4
4
      </DataArray>
    </Cells>
    <PointData>
      <DataArray type="Float64" NumberOfComponents="3" Name="Displacement" format="ascii">
.000000 .000000 .000000
.051148 .476770 .000000
-.055951 1.496545 .000000
-.344085 2.886646 .000000
-.787141 4.508648 .000000
-1.332296 6.248428 .000000
-1.792997 6.732000 .000000
.000000 .000000 .000000
-.157611 .446132 .000000
-.421724 1.421206 .000000
-.816655 2.763639 .000000
-1.324031 4.349113 .000000
-1.897632 6.071527 .000000
      </DataArray>
      <DataArray type="Float64" NumberOfComponents="3" Name="Reactions" format="ascii">
37.992882 8.637478 .000000
.000000 .000000 .000000
-.000000 .000000 .000000
-.000000 .000000 .000000
.000000 .000000 .000000
-.000000 .000000 .000000
-.000000 -2.674236 .000000
-37.992882 -5.963242 .000000
-.000000 -.000000 .000000
-.000000 -.000000 .000000
-.000000 -.000000 .000000
.000000 .000000 .000000
.000000 -.000000 .000000
      </DataArray>
    </PointData>
    <CellData>
    </CellData>
  </Piece>
  </UnstructuredGrid>
</VTKFile>
