<?xml version="1.0"?>
<VTKFile type="UnstructuredGrid">
  <UnstructuredGrid>
  <Piece NumberOfPoints="13"  NumberOfCells="23">
    <Points>
      <DataArray type="Float64" NumberOfComponents="3" format="ascii">
.000000 .000000 .000000
3.031238 .173959 .000000
6.033306 .569227 .000000
9.000333 1.130915 .000000
11.935040 1.806466 .000000
14.845975 2.544933 .000000
15.697037 3.272000 .000000
.000000 1.000000 .000000
2.948716 1.168671 .000000
5.885811 1.556789 .000000
8.805404 2.110507 .000000
11.709749 2.779710 .000000
14.606866 3.515390 .000000
      </DataArray>
    </Points>
    <Cells>
      <DataArray type="Int32" Name="connectivity" format="ascii">
0 1
1 2
2 3
3 4
4 5
5 6
0 7
0 8
1 8
1 9
2 9
2 10
3 10
3 11
4 11
4 12
5 12
7 8
8 9
9 10
10 11
11 12
12 6
      </DataArray>
      <DataArray type="Int32" Name="offsets" format="ascii">
2
4
6
8
10
12
14
16
18
20
22
24
26
28
30
32
34
36
38
40
42
44
46
      </DataArray>
      <DataArray type="UInt8" Name="types" format="ascii">
4
4
4
4
4
4
4
4
4
4
4
4
4
4
4
4
4
4
4
4
4
4
4
      </DataArray>
    </Cells>
    <PointData>
      <DataArray type="Float64" NumberOfComponents="3" Name="Displacement" format="ascii">
.000000 .000000 .000000
.031238 .173959 .000000
.033306 .569227 .000000
.000333 1.130915 .000000
-.064960 1.806466 .000000
-.154025 2.544933 .000000
-.302963 2.772000 .000000
.000000 .000000 .000000
-.051284 .168671 .000000
-.114189 .556789 .000000
-.194596 1.110507 .000000
-.290251 1.779710 .000000
-.393134 2.515390 .000000
      </DataArray>
      <DataArray type="Float64" NumberOfComponents="3" Name="Reactions" format="ascii">
15.105366 1.826356 .000000
.000000 .000000 .000000
-.000000 .000000 .000000
-.000000 .000000 .000000
.000000 .000000 .000000
-.000000 .000000 .000000
-.000000 -.962307 .000000
-15.105366 -.864049 .000000
.000000 -.000000 .000000
-.000000 -.000000 .000000
-.000000 -.000000 .000000
.000000 -.000000 .000000
.000000 -.000000 .000000
      </DataArray>
    </PointData>
    <CellData>
    </CellData>
  </Piece>
  </UnstructuredGrid>
</VTKFile>
