<?xml version="1.0"?>
<VTKFile type="UnstructuredGrid">
  <UnstructuredGrid>
  <Piece NumberOfPoints="13"  NumberOfCells="23">
    <Points>
      <DataArray type="Float64" NumberOfComponents="3" format="ascii">
.000000 .000000 .000000
3.023475 .122358 .000000
6.030485 .402554 .000000
9.017928 .802595 .000000
11.987089 1.285406 .000000
14.942297 1.814407 .000000
15.841752 2.480000 .000000
.000000 1.000000 .000000
2.964732 1.119488 .000000
5.925313 1.396055 .000000
8.878651 1.792035 .000000
11.825864 2.271601 .000000
14.771072 2.799272 .000000
      </DataArray>
    </Points>
    <Cells>
      <DataArray type="Int32" Name="connectivity" format="ascii">
0 1
1 2
2 3
3 4
4 5
5 6
0 7
0 8
1 8
1 9
2 9
2 10
3 10
3 11
4 11
4 12
5 12
7 8
8 9
9 10
10 11
11 12
12 6
      </DataArray>
      <DataArray type="Int32" Name="offsets" format="ascii">
2
4
6
8
10
12
14
16
18
20
22
24
26
28
30
32
34
36
38
40
42
44
46
      </DataArray>
      <DataArray type="UInt8" Name="types" format="ascii">
4
4
4
4
4
4
4
4
4
4
4
4
4
4
4
4
4
4
4
4
4
4
4
      </DataArray>
    </Cells>
    <PointData>
      <DataArray type="Float64" NumberOfComponents="3" Name="Displacement" format="ascii">
.000000 .000000 .000000
.023475 .122358 .000000
.030485 .402554 .000000
.017928 .802595 .000000
-.012911 1.285406 .000000
-.057703 1.814407 .000000
-.158248 1.980000 .000000
.000000 .000000 .000000
-.035268 .119488 .000000
-.074687 .396055 .000000
-.121349 .792035 .000000
-.174136 1.271601 .000000
-.228928 1.799272 .000000
      </DataArray>
      <DataArray type="Float64" NumberOfComponents="3" Name="Reactions" format="ascii">
10.765726 1.113473 .000000
.000000 .000000 .000000
-.000000 .000000 .000000
-.000000 .000000 .000000
.000000 .000000 .000000
-.000000 .000000 .000000
-.000000 -.679579 .000000
-10.765726 -.433894 .000000
.000000 -.000000 .000000
-.000000 -.000000 .000000
-.000000 -.000000 .000000
.000000 -.000000 .000000
.000000 -.000000 .000000
      </DataArray>
    </PointData>
    <CellData>
    </CellData>
  </Piece>
  </UnstructuredGrid>
</VTKFile>
