<?xml version="1.0"?>
<VTKFile type="UnstructuredGrid">
  <UnstructuredGrid>
  <Piece NumberOfPoints="13"  NumberOfCells="23">
    <Points>
      <DataArray type="Float64" NumberOfComponents="3" format="ascii">
.000000 .000000 .000000
3.019233 .097223 .000000
6.026999 .320643 .000000
9.021283 .640251 .000000
12.002880 1.026546 .000000
14.974551 1.450212 .000000
15.896460 2.084000 .000000
.000000 1.000000 .000000
2.972295 1.095284 .000000
5.942910 1.316385 .000000
8.909844 1.633396 .000000
11.873804 2.017611 .000000
14.837439 2.440480 .000000
      </DataArray>
    </Points>
    <Cells>
      <DataArray type="Int32" Name="connectivity" format="ascii">
0 1
1 2
2 3
3 4
4 5
5 6
0 7
0 8
1 8
1 9
2 9
2 10
3 10
3 11
4 11
4 12
5 12
7 8
8 9
9 10
10 11
11 12
12 6
      </DataArray>
      <DataArray type="Int32" Name="offsets" format="ascii">
2
4
6
8
10
12
14
16
18
20
22
24
26
28
30
32
34
36
38
40
42
44
46
      </DataArray>
      <DataArray type="UInt8" Name="types" format="ascii">
4
4
4
4
4
4
4
4
4
4
4
4
4
4
4
4
4
4
4
4
4
4
4
      </DataArray>
    </Cells>
    <PointData>
      <DataArray type="Float64" NumberOfComponents="3" Name="Displacement" format="ascii">
.000000 .000000 .000000
.019233 .097223 .000000
.026999 .320643 .000000
.021283 .640251 .000000
.002880 1.026546 .000000
-.025449 1.450212 .000000
-.103540 1.584000 .000000
.000000 .000000 .000000
-.027705 .095284 .000000
-.057090 .316385 .000000
-.090156 .633396 .000000
-.126196 1.017611 .000000
-.162561 1.440480 .000000
      </DataArray>
      <DataArray type="Float64" NumberOfComponents="3" Name="Reactions" format="ascii">
8.607806 .817436 .000000
.000000 .000000 .000000
-.000000 .000000 .000000
-.000000 .000000 .000000
.000000 .000000 .000000
-.000000 .000000 .000000
-.000000 -.541492 .000000
-8.607806 -.275944 .000000
.000000 -.000000 .000000
-.000000 -.000000 .000000
-.000000 -.000000 .000000
.000000 -.000000 .000000
.000000 -.000000 .000000
      </DataArray>
    </PointData>
    <CellData>
    </CellData>
  </Piece>
  </UnstructuredGrid>
</VTKFile>
