<?xml version="1.0"?>
<VTKFile type="UnstructuredGrid">
  <UnstructuredGrid>
  <Piece NumberOfPoints="13"  NumberOfCells="23">
    <Points>
      <DataArray type="Float64" NumberOfComponents="3" format="ascii">
.000000 .000000 .000000
3.047804 .343881 .000000
6.003953 1.101390 .000000
8.851501 2.155634 .000000
11.602849 3.404206 .000000
14.288314 4.755691 .000000
14.966347 5.648000 .000000
.000000 1.000000 .000000
2.891573 1.326395 .000000
5.727306 2.058546 .000000
8.489809 3.085100 .000000
11.188262 4.312016 .000000
13.849942 5.653318 .000000
      </DataArray>
    </Points>
    <Cells>
      <DataArray type="Int32" Name="connectivity" format="ascii">
0 1
1 2
2 3
3 4
4 5
5 6
0 7
0 8
1 8
1 9
2 9
2 10
3 10
3 11
4 11
4 12
5 12
7 8
8 9
9 10
10 11
11 12
12 6
      </DataArray>
      <DataArray type="Int32" Name="offsets" format="ascii">
2
4
6
8
10
12
14
16
18
20
22
24
26
28
30
32
34
36
38
40
42
44
46
      </DataArray>
      <DataArray type="UInt8" Name="types" format="ascii">
4
4
4
4
4
4
4
4
4
4
4
4
4
4
4
4
4
4
4
4
4
4
4
      </DataArray>
    </Cells>
    <PointData>
      <DataArray type="Float64" NumberOfComponents="3" Name="Displacement" format="ascii">
.000000 .000000 .000000
.047804 .343881 .000000
.003953 1.101390 .000000
-.148499 2.155634 .000000
-.397151 3.404206 .000000
-.711686 4.755691 .000000
-1.033653 5.148000 .000000
.000000 .000000 .000000
-.108427 .326395 .000000
-.272694 1.058546 .000000
-.510191 2.085100 .000000
-.811738 3.312016 .000000
-1.150058 4.653318 .000000
      </DataArray>
      <DataArray type="Float64" NumberOfComponents="3" Name="Reactions" format="ascii">
28.502000 5.121655 .000000
.000000 .000000 .000000
-.000000 .000000 .000000
-.000000 .000000 .000000
.000000 .000000 .000000
-.000000 .000000 .000000
-.000000 -1.904406 .000000
-28.502000 -3.217249 .000000
-.000000 -.000000 .000000
-.000000 -.000000 .000000
-.000000 -.000000 .000000
.000000 .000000 .000000
.000000 -.000000 .000000
      </DataArray>
    </PointData>
    <CellData>
    </CellData>
  </Piece>
  </UnstructuredGrid>
</VTKFile>
