<?xml version="1.0"?>
<VTKFile type="UnstructuredGrid">
  <UnstructuredGrid>
  <Piece NumberOfPoints="13"  NumberOfCells="23">
    <Points>
      <DataArray type="Float64" NumberOfComponents="3" format="ascii">
.000000 .000000 .000000
3.005142 .023897 .000000
6.008664 .079312 .000000
9.010436 .158939 .000000
12.010502 .255486 .000000
15.009035 .361612 .000000
15.991284 .896000 .000000
.000000 1.000000 .000000
2.993426 1.023675 .000000
5.987656 1.078946 .000000
8.982561 1.158410 .000000
11.978186 1.254827 .000000
14.974697 1.360954 .000000
      </DataArray>
    </Points>
    <Cells>
      <DataArray type="Int32" Name="connectivity" format="ascii">
0 1
1 2
2 3
3 4
4 5
5 6
0 7
0 8
1 8
1 9
2 9
2 10
3 10
3 11
4 11
4 12
5 12
7 8
8 9
9 10
10 11
11 12
12 6
      </DataArray>
      <DataArray type="Int32" Name="offsets" format="ascii">
2
4
6
8
10
12
14
16
18
20
22
24
26
28
30
32
34
36
38
40
42
44
46
      </DataArray>
      <DataArray type="UInt8" Name="types" format="ascii">
4
4
4
4
4
4
4
4
4
4
4
4
4
4
4
4
4
4
4
4
4
4
4
      </DataArray>
    </Cells>
    <PointData>
      <DataArray type="Float64" NumberOfComponents="3" Name="Displacement" format="ascii">
.000000 .000000 .000000
.005142 .023897 .000000
.008664 .079312 .000000
.010436 .158939 .000000
.010502 .255486 .000000
.009035 .361612 .000000
-.008716 .396000 .000000
.000000 .000000 .000000
-.006574 .023675 .000000
-.012344 .078946 .000000
-.017439 .158410 .000000
-.021814 .254827 .000000
-.025303 .360954 .000000
      </DataArray>
      <DataArray type="Float64" NumberOfComponents="3" Name="Reactions" format="ascii">
2.153055 .151668 .000000
.000000 .000000 .000000
-.000000 .000000 .000000
-.000000 .000000 .000000
.000000 .000000 .000000
-.000000 .000000 .000000
-.000000 -.134639 .000000
-2.153055 -.017029 .000000
.000000 -.000000 .000000
-.000000 -.000000 .000000
-.000000 -.000000 .000000
.000000 -.000000 .000000
.000000 -.000000 .000000
      </DataArray>
    </PointData>
    <CellData>
    </CellData>
  </Piece>
  </UnstructuredGrid>
</VTKFile>
