<?xml version="1.0"?>
<VTKFile type="UnstructuredGrid">
  <UnstructuredGrid>
  <Piece NumberOfPoints="13"  NumberOfCells="23">
    <Points>
      <DataArray type="Float64" NumberOfComponents="3" format="ascii">
.000000 .000000 .000000
3.014761 .072466 .000000
6.022182 .239535 .000000
9.021115 .478944 .000000
12.011995 .768668 .000000
14.996367 1.086697 .000000
15.939563 1.688000 .000000
.000000 1.000000 .000000
2.979587 1.071276 .000000
5.959141 1.237042 .000000
8.937522 1.474991 .000000
11.915128 1.763545 .000000
14.893454 2.081175 .000000
      </DataArray>
    </Points>
    <Cells>
      <DataArray type="Int32" Name="connectivity" format="ascii">
0 1
1 2
2 3
3 4
4 5
5 6
0 7
0 8
1 8
1 9
2 9
2 10
3 10
3 11
4 11
4 12
5 12
7 8
8 9
9 10
10 11
11 12
12 6
      </DataArray>
      <DataArray type="Int32" Name="offsets" format="ascii">
2
4
6
8
10
12
14
16
18
20
22
24
26
28
30
32
34
36
38
40
42
44
46
      </DataArray>
      <DataArray type="UInt8" Name="types" format="ascii">
4
4
4
4
4
4
4
4
4
4
4
4
4
4
4
4
4
4
4
4
4
4
4
      </DataArray>
    </Cells>
    <PointData>
      <DataArray type="Float64" NumberOfComponents="3" Name="Displacement" format="ascii">
.000000 .000000 .000000
.014761 .072466 .000000
.022182 .239535 .000000
.021115 .478944 .000000
.011995 .768668 .000000
-.003633 1.086697 .000000
-.060437 1.188000 .000000
.000000 .000000 .000000
-.020413 .071276 .000000
-.040859 .237042 .000000
-.062478 .474991 .000000
-.084872 .763545 .000000
-.106546 1.081175 .000000
      </DataArray>
      <DataArray type="Float64" NumberOfComponents="3" Name="Reactions" format="ascii">
6.454620 .559347 .000000
.000000 .000000 .000000
-.000000 .000000 .000000
-.000000 .000000 .000000
.000000 .000000 .000000
-.000000 .000000 .000000
-.000000 -.404943 .000000
-6.454620 -.154403 .000000
.000000 -.000000 .000000
-.000000 -.000000 .000000
-.000000 -.000000 .000000
.000000 -.000000 .000000
.000000 -.000000 .000000
      </DataArray>
    </PointData>
    <CellData>
    </CellData>
  </Piece>
  </UnstructuredGrid>
</VTKFile>
