<?xml version="1.0"?>
<VTKFile type="UnstructuredGrid">
  <UnstructuredGrid>
  <Piece NumberOfPoints="13"  NumberOfCells="23">
    <Points>
      <DataArray type="Float64" NumberOfComponents="3" format="ascii">
.000000 .000000 .000000
3.037972 .227711 .000000
6.030241 .740504 .000000
8.967530 1.465013 .000000
11.854741 2.332669 .000000
14.706127 3.278488 .000000
15.504158 4.064000 .000000
.000000 1.000000 .000000
2.931355 1.219224 .000000
5.840131 1.720113 .000000
8.716979 2.431422 .000000
11.565784 3.288613 .000000
14.399737 4.229672 .000000
      </DataArray>
    </Points>
    <Cells>
      <DataArray type="Int32" Name="connectivity" format="ascii">
0 1
1 2
2 3
3 4
4 5
5 6
0 7
0 8
1 8
1 9
2 9
2 10
3 10
3 11
4 11
4 12
5 12
7 8
8 9
9 10
10 11
11 12
12 6
      </DataArray>
      <DataArray type="Int32" Name="offsets" format="ascii">
2
4
6
8
10
12
14
16
18
20
22
24
26
28
30
32
34
36
38
40
42
44
46
      </DataArray>
      <DataArray type="UInt8" Name="types" format="ascii">
4
4
4
4
4
4
4
4
4
4
4
4
4
4
4
4
4
4
4
4
4
4
4
      </DataArray>
    </Cells>
    <PointData>
      <DataArray type="Float64" NumberOfComponents="3" Name="Displacement" format="ascii">
.000000 .000000 .000000
.037972 .227711 .000000
.030241 .740504 .000000
-.032470 1.465013 .000000
-.145259 2.332669 .000000
-.293873 3.278488 .000000
-.495842 3.564000 .000000
.000000 .000000 .000000
-.068645 .219224 .000000
-.159869 .720113 .000000
-.283021 1.431422 .000000
-.434216 2.288613 .000000
-.600263 3.229672 .000000
      </DataArray>
      <DataArray type="Float64" NumberOfComponents="3" Name="Reactions" format="ascii">
19.493386 2.715128 .000000
.000000 .000000 .000000
-.000000 .000000 .000000
-.000000 .000000 .000000
.000000 .000000 .000000
-.000000 .000000 .000000
-.000000 -1.257300 .000000
-19.493386 -1.457827 .000000
.000000 -.000000 .000000
-.000000 -.000000 .000000
-.000000 -.000000 .000000
.000000 -.000000 .000000
.000000 -.000000 .000000
      </DataArray>
    </PointData>
    <CellData>
    </CellData>
  </Piece>
  </UnstructuredGrid>
</VTKFile>
