<?xml version="1.0"?>
<VTKFile type="UnstructuredGrid">
  <UnstructuredGrid>
  <Piece NumberOfPoints="13"  NumberOfCells="23">
    <Points>
      <DataArray type="Float64" NumberOfComponents="3" format="ascii">
.000000 .000000 .000000
3.047166 .593140 .000000
5.868958 1.825381 .000000
8.443108 3.471394 .000000
10.811983 5.365331 .000000
13.049462 7.380093 .000000
13.472301 8.420000 .000000
.000000 1.000000 .000000
2.796097 1.549119 .000000
5.433901 2.717612 .000000
7.887784 4.297346 .000000
10.186599 6.141548 .000000
12.393672 8.132661 .000000
      </DataArray>
    </Points>
    <Cells>
      <DataArray type="Int32" Name="connectivity" format="ascii">
0 1
1 2
2 3
3 4
4 5
5 6
0 7
0 8
1 8
1 9
2 9
2 10
3 10
3 11
4 11
4 12
5 12
7 8
8 9
9 10
10 11
11 12
12 6
      </DataArray>
      <DataArray type="Int32" Name="offsets" format="ascii">
2
4
6
8
10
12
14
16
18
20
22
24
26
28
30
32
34
36
38
40
42
44
46
      </DataArray>
      <DataArray type="UInt8" Name="types" format="ascii">
4
4
4
4
4
4
4
4
4
4
4
4
4
4
4
4
4
4
4
4
4
4
4
      </DataArray>
    </Cells>
    <PointData>
      <DataArray type="Float64" NumberOfComponents="3" Name="Displacement" format="ascii">
.000000 .000000 .000000
.047166 .593140 .000000
-.131042 1.825381 .000000
-.556892 3.471394 .000000
-1.188017 5.365331 .000000
-1.950538 7.380093 .000000
-2.527699 7.920000 .000000
.000000 .000000 .000000
-.203903 .549119 .000000
-.566099 1.717612 .000000
-1.112216 3.297346 .000000
-1.813401 5.141548 .000000
-2.606328 7.132661 .000000
      </DataArray>
      <DataArray type="Float64" NumberOfComponents="3" Name="Reactions" format="ascii">
45.582057 12.335138 .000000
.000000 .000000 .000000
-.000000 .000000 .000000
-.000000 .000000 .000000
.000000 .000000 .000000
-.000000 .000000 .000000
-.000000 -3.383391 .000000
-45.582057 -8.951748 .000000
-.000000 -.000000 .000000
-.000000 -.000000 .000000
-.000000 -.000000 .000000
.000000 .000000 .000000
.000000 -.000000 .000000
      </DataArray>
    </PointData>
    <CellData>
    </CellData>
  </Piece>
  </UnstructuredGrid>
</VTKFile>
