<?xml version="1.0"?>
<VTKFile type="UnstructuredGrid">
  <UnstructuredGrid>
  <Piece NumberOfPoints="13"  NumberOfCells="23">
    <Points>
      <DataArray type="Float64" NumberOfComponents="3" format="ascii">
.000000 .000000 .000000
3.017102 .841669 .000000
5.653179 2.469626 .000000
7.911360 4.546603 .000000
9.876737 6.866903 .000000
11.664401 9.294700 .000000
11.870068 10.400000 .000000
.000000 1.000000 .000000
2.686478 1.765583 .000000
5.096062 3.287221 .000000
7.220228 5.260597 .000000
9.113565 7.506952 .000000
10.871504 9.900010 .000000
      </DataArray>
    </Points>
    <Cells>
      <DataArray type="Int32" Name="connectivity" format="ascii">
0 1
1 2
2 3
3 4
4 5
5 6
0 7
0 8
1 8
1 9
2 9
2 10
3 10
3 11
4 11
4 12
5 12
7 8
8 9
9 10
10 11
11 12
12 6
      </DataArray>
      <DataArray type="Int32" Name="offsets" format="ascii">
2
4
6
8
10
12
14
16
18
20
22
24
26
28
30
32
34
36
38
40
42
44
46
      </DataArray>
      <DataArray type="UInt8" Name="types" format="ascii">
4
4
4
4
4
4
4
4
4
4
4
4
4
4
4
4
4
4
4
4
4
4
4
      </DataArray>
    </Cells>
    <PointData>
      <DataArray type="Float64" NumberOfComponents="3" Name="Displacement" format="ascii">
.000000 .000000 .000000
.017102 .841669 .000000
-.346821 2.469626 .000000
-1.088640 4.546603 .000000
-2.123263 6.866903 .000000
-3.335599 9.294700 .000000
-4.129932 9.900000 .000000
.000000 .000000 .000000
-.313522 .765583 .000000
-.903938 2.287221 .000000
-1.779772 4.260597 .000000
-2.886435 6.506952 .000000
-4.128496 8.900010 .000000
      </DataArray>
      <DataArray type="Float64" NumberOfComponents="3" Name="Reactions" format="ascii">
59.536188 21.982063 .000000
.000000 .000000 .000000
-.000000 .000000 .000000
-.000000 .000000 .000000
.000000 .000000 .000000
-.000000 .000000 .000000
-.000000 -5.015657 .000000
-59.536188 -16.966406 .000000
-.000000 -.000000 .000000
-.000000 -.000000 .000000
.000000 -.000000 .000000
.000000 .000000 .000000
.000000 -.000000 .000000
      </DataArray>
    </PointData>
    <CellData>
    </CellData>
  </Piece>
  </UnstructuredGrid>
</VTKFile>
