<?xml version="1.0"?>
<VTKFile type="UnstructuredGrid">
  <UnstructuredGrid>
  <Piece NumberOfPoints="13"  NumberOfCells="23">
    <Points>
      <DataArray type="Float64" NumberOfComponents="3" format="ascii">
.000000 .000000 .000000
3.034057 .731469 .000000
5.756860 2.193925 .000000
8.156047 4.098383 .000000
10.297018 6.253361 .000000
12.277749 8.524099 .000000
12.573602 9.608000 .000000
.000000 1.000000 .000000
2.736986 1.670006 .000000
5.249718 3.045002 .000000
7.518745 4.861617 .000000
9.587140 6.952456 .000000
11.537201 9.192862 .000000
      </DataArray>
    </Points>
    <Cells>
      <DataArray type="Int32" Name="connectivity" format="ascii">
0 1
1 2
2 3
3 4
4 5
5 6
0 7
0 8
1 8
1 9
2 9
2 10
3 10
3 11
4 11
4 12
5 12
7 8
8 9
9 10
10 11
11 12
12 6
      </DataArray>
      <DataArray type="Int32" Name="offsets" format="ascii">
2
4
6
8
10
12
14
16
18
20
22
24
26
28
30
32
34
36
38
40
42
44
46
      </DataArray>
      <DataArray type="UInt8" Name="types" format="ascii">
4
4
4
4
4
4
4
4
4
4
4
4
4
4
4
4
4
4
4
4
4
4
4
      </DataArray>
    </Cells>
    <PointData>
      <DataArray type="Float64" NumberOfComponents="3" Name="Displacement" format="ascii">
.000000 .000000 .000000
.034057 .731469 .000000
-.243140 2.193925 .000000
-.843953 4.098383 .000000
-1.702982 6.253361 .000000
-2.722251 8.524099 .000000
-3.426398 9.108000 .000000
.000000 .000000 .000000
-.263014 .670006 .000000
-.750282 2.045002 .000000
-1.481255 3.861617 .000000
-2.412860 5.952456 .000000
-3.462799 8.192862 .000000
      </DataArray>
      <DataArray type="Float64" NumberOfComponents="3" Name="Reactions" format="ascii">
53.726130 17.424925 .000000
.000000 .000000 .000000
-.000000 .000000 .000000
-.000000 .000000 .000000
.000000 .000000 .000000
-.000000 .000000 .000000
-.000000 -4.272931 .000000
-53.726130 -13.151994 .000000
-.000000 -.000000 .000000
-.000000 -.000000 .000000
-.000000 -.000000 .000000
.000000 .000000 .000000
.000000 -.000000 .000000
      </DataArray>
    </PointData>
    <CellData>
    </CellData>
  </Piece>
  </UnstructuredGrid>
</VTKFile>
