<?xml version="1.0"?>
<VTKFile type="UnstructuredGrid">
  <UnstructuredGrid>
  <Piece NumberOfPoints="13"  NumberOfCells="23">
    <Points>
      <DataArray type="Float64" NumberOfComponents="3" format="ascii">
.000000 .000000 .000000
3.040916 .255553 .000000
6.026331 .828200 .000000
8.945093 1.634607 .000000
11.803542 2.597977 .000000
14.619355 3.646476 .000000
15.389132 4.460000 .000000
.000000 1.000000 .000000
2.922099 1.245156 .000000
5.814772 1.803043 .000000
8.666742 2.593134 .000000
11.482939 3.543605 .000000
14.279607 4.586170 .000000
      </DataArray>
    </Points>
    <Cells>
      <DataArray type="Int32" Name="connectivity" format="ascii">
0 1
1 2
2 3
3 4
4 5
5 6
0 7
0 8
1 8
1 9
2 9
2 10
3 10
3 11
4 11
4 12
5 12
7 8
8 9
9 10
10 11
11 12
12 6
      </DataArray>
      <DataArray type="Int32" Name="offsets" format="ascii">
2
4
6
8
10
12
14
16
18
20
22
24
26
28
30
32
34
36
38
40
42
44
46
      </DataArray>
      <DataArray type="UInt8" Name="types" format="ascii">
4
4
4
4
4
4
4
4
4
4
4
4
4
4
4
4
4
4
4
4
4
4
4
      </DataArray>
    </Cells>
    <PointData>
      <DataArray type="Float64" NumberOfComponents="3" Name="Displacement" format="ascii">
.000000 .000000 .000000
.040916 .255553 .000000
.026331 .828200 .000000
-.054907 1.634607 .000000
-.196458 2.597977 .000000
-.380645 3.646476 .000000
-.610868 3.960000 .000000
.000000 .000000 .000000
-.077901 .245156 .000000
-.185228 .803043 .000000
-.333258 1.593134 .000000
-.517061 2.543605 .000000
-.720393 3.586170 .000000
      </DataArray>
      <DataArray type="Float64" NumberOfComponents="3" Name="Reactions" format="ascii">
21.712123 3.232459 .000000
.000000 .000000 .000000
-.000000 .000000 .000000
-.000000 .000000 .000000
.000000 .000000 .000000
-.000000 .000000 .000000
-.000000 -1.410874 .000000
-21.712123 -1.821586 .000000
.000000 -.000000 .000000
-.000000 -.000000 .000000
-.000000 -.000000 .000000
.000000 .000000 .000000
.000000 -.000000 .000000
      </DataArray>
    </PointData>
    <CellData>
    </CellData>
  </Piece>
  </UnstructuredGrid>
</VTKFile>
