<?xml version="1.0"?>
<VTKFile type="UnstructuredGrid">
  <UnstructuredGrid>
  <Piece NumberOfPoints="13"  NumberOfCells="23">
    <Points>
      <DataArray type="Float64" NumberOfComponents="3" format="ascii">
.000000 .000000 .000000
3.050905 .497833 .000000
5.931920 1.557295 .000000
8.619885 2.996375 .000000
11.143585 4.671347 .000000
13.559625 6.465269 .000000
14.077347 7.460547 .000000
.000000 1.000000 .000000
2.834235 1.464884 .000000
5.553003 2.476307 .000000
8.131358 3.864379 .000000
10.589419 5.500405 .000000
12.976521 7.275800 .000000
      </DataArray>
    </Points>
    <Cells>
      <DataArray type="Int32" Name="connectivity" format="ascii">
0 1
1 2
2 3
3 4
4 5
5 6
0 7
0 8
1 8
1 9
2 9
2 10
3 10
3 11
4 11
4 12
5 12
7 8
8 9
9 10
10 11
11 12
12 6
      </DataArray>
      <DataArray type="Int32" Name="offsets" format="ascii">
2
4
6
8
10
12
14
16
18
20
22
24
26
28
30
32
34
36
38
40
42
44
46
      </DataArray>
      <DataArray type="UInt8" Name="types" format="ascii">
4
4
4
4
4
4
4
4
4
4
4
4
4
4
4
4
4
4
4
4
4
4
4
      </DataArray>
    </Cells>
    <PointData>
      <DataArray type="Float64" NumberOfComponents="3" Name="Displacement" format="ascii">
.000000 .000000 .000000
.050905 .497833 .000000
-.068080 1.557295 .000000
-.380115 2.996375 .000000
-.856415 4.671347 .000000
-1.440375 6.465269 .000000
-1.922653 6.960547 .000000
.000000 .000000 .000000
-.165765 .464884 .000000
-.446997 1.476307 .000000
-.868642 2.864379 .000000
-1.410581 4.500405 .000000
-2.023479 6.275800 .000000
      </DataArray>
      <DataArray type="Float64" NumberOfComponents="3" Name="Reactions" format="ascii">
39.416571 9.265287 .000000
.000000 .000000 .000000
.000000 .000000 .000000
-.000000 .000000 .000000
-.000000 .000000 .000000
-.000000 .000000 .000000
-.000000 -2.800000 .000000
-39.416571 -6.465287 .000000
.000000 -.000000 .000000
.000000 -.000000 .000000
.000000 -.000000 .000000
.000000 -.000000 .000000
.000000 -.000000 .000000
      </DataArray>
    </PointData>
    <CellData>
    </CellData>
  </Piece>
  </UnstructuredGrid>
</VTKFile>
