<?xml version="1.0"?>
<VTKFile type="UnstructuredGrid">
  <UnstructuredGrid>
  <Piece NumberOfPoints="13"  NumberOfCells="23">
    <Points>
      <DataArray type="Float64" NumberOfComponents="3" format="ascii">
.000000 .000000 .000000
3.027225 .780509 .000000
5.712111 2.318587 .000000
8.048381 4.303304 .000000
10.110148 6.536155 .000000
12.003287 8.881423 .000000
12.257742 9.976117 .000000
.000000 1.000000 .000000
2.714901 1.712595 .000000
5.181948 3.154776 .000000
7.385949 5.044441 .000000
9.375146 7.208584 .000000
11.237934 9.521449 .000000
      </DataArray>
    </Points>
    <Cells>
      <DataArray type="Int32" Name="connectivity" format="ascii">
0 1
1 2
2 3
3 4
4 5
5 6
0 7
0 8
1 8
1 9
2 9
2 10
3 10
3 11
4 11
4 12
5 12
7 8
8 9
9 10
10 11
11 12
12 6
      </DataArray>
      <DataArray type="Int32" Name="offsets" format="ascii">
2
4
6
8
10
12
14
16
18
20
22
24
26
28
30
32
34
36
38
40
42
44
46
      </DataArray>
      <DataArray type="UInt8" Name="types" format="ascii">
4
4
4
4
4
4
4
4
4
4
4
4
4
4
4
4
4
4
4
4
4
4
4
      </DataArray>
    </Cells>
    <PointData>
      <DataArray type="Float64" NumberOfComponents="3" Name="Displacement" format="ascii">
.000000 .000000 .000000
.027225 .780509 .000000
-.287889 2.318587 .000000
-.951619 4.303304 .000000
-1.889852 6.536155 .000000
-2.996713 8.881423 .000000
-3.742258 9.476117 .000000
.000000 .000000 .000000
-.285099 .712595 .000000
-.818052 2.154776 .000000
-1.614051 4.044441 .000000
-2.624854 6.208584 .000000
-3.762066 8.521449 .000000
      </DataArray>
      <DataArray type="Float64" NumberOfComponents="3" Name="Reactions" format="ascii">
56.385612 19.399840 .000000
-.000000 .000000 .000000
.000000 .000000 .000000
.000000 -.000000 .000000
.000000 -.000000 .000000
.000000 -.000000 .000000
.000000 -4.600000 .000000
-56.385612 -14.799840 .000000
.000000 -.000000 .000000
.000000 .000000 .000000
-.000000 .000000 .000000
-.000000 .000000 .000000
-.000000 .000000 .000000
      </DataArray>
    </PointData>
    <CellData>
    </CellData>
  </Piece>
  </UnstructuredGrid>
</VTKFile>
