<?xml version="1.0"?>
<VTKFile type="UnstructuredGrid">
  <UnstructuredGrid>
  <Piece NumberOfPoints="13"  NumberOfCells="23">
    <Points>
      <DataArray type="Float64" NumberOfComponents="3" format="ascii">
.000000 .000000 .000000
3.046670 .325371 .000000
6.009860 1.044799 .000000
8.873776 2.048671 .000000
11.649353 3.239868 .000000
14.364060 4.530794 .000000
15.061486 5.407842 .000000
.000000 1.000000 .000000
2.898114 1.309492 .000000
5.746472 2.005959 .000000
8.528923 2.984687 .000000
11.253634 4.156171 .000000
13.945426 5.437858 .000000
      </DataArray>
    </Points>
    <Cells>
      <DataArray type="Int32" Name="connectivity" format="ascii">
0 1
1 2
2 3
3 4
4 5
5 6
0 7
0 8
1 8
1 9
2 9
2 10
3 10
3 11
4 11
4 12
5 12
7 8
8 9
9 10
10 11
11 12
12 6
      </DataArray>
      <DataArray type="Int32" Name="offsets" format="ascii">
2
4
6
8
10
12
14
16
18
20
22
24
26
28
30
32
34
36
38
40
42
44
46
      </DataArray>
      <DataArray type="UInt8" Name="types" format="ascii">
4
4
4
4
4
4
4
4
4
4
4
4
4
4
4
4
4
4
4
4
4
4
4
      </DataArray>
    </Cells>
    <PointData>
      <DataArray type="Float64" NumberOfComponents="3" Name="Displacement" format="ascii">
.000000 .000000 .000000
.046670 .325371 .000000
.009860 1.044799 .000000
-.126224 2.048671 .000000
-.350647 3.239868 .000000
-.635940 4.530794 .000000
-.938514 4.907842 .000000
.000000 .000000 .000000
-.101886 .309492 .000000
-.253528 1.005959 .000000
-.471077 1.984687 .000000
-.746366 3.156171 .000000
-1.054574 4.437858 .000000
      </DataArray>
      <DataArray type="Float64" NumberOfComponents="3" Name="Reactions" format="ascii">
27.110675 4.695167 .000000
.000000 .000000 .000000
.000000 .000000 .000000
.000000 .000000 .000000
.000000 .000000 .000000
-.000000 .000000 .000000
-.000000 -1.800000 .000000
-27.110675 -2.895167 .000000
.000000 -.000000 .000000
.000000 -.000000 .000000
.000000 -.000000 .000000
.000000 -.000000 .000000
.000000 -.000000 .000000
      </DataArray>
    </PointData>
    <CellData>
    </CellData>
  </Piece>
  </UnstructuredGrid>
</VTKFile>
