<?xml version="1.0"?>
<VTKFile type="UnstructuredGrid">
  <UnstructuredGrid>
  <Piece NumberOfPoints="13"  NumberOfCells="23">
    <Points>
      <DataArray type="Float64" NumberOfComponents="3" format="ascii">
.000000 .000000 .000000
3.007557 .035575 .000000
6.012412 .117963 .000000
9.014280 .236278 .000000
12.013261 .379678 .000000
15.009735 .537260 .000000
15.982944 1.088110 .000000
.000000 1.000000 .000000
2.990156 1.035183 .000000
5.981212 1.117252 .000000
8.972886 1.235209 .000000
11.965275 1.378323 .000000
14.958747 1.535856 .000000
      </DataArray>
    </Points>
    <Cells>
      <DataArray type="Int32" Name="connectivity" format="ascii">
0 1
1 2
2 3
3 4
4 5
5 6
0 7
0 8
1 8
1 9
2 9
2 10
3 10
3 11
4 11
4 12
5 12
7 8
8 9
9 10
10 11
11 12
12 6
      </DataArray>
      <DataArray type="Int32" Name="offsets" format="ascii">
2
4
6
8
10
12
14
16
18
20
22
24
26
28
30
32
34
36
38
40
42
44
46
      </DataArray>
      <DataArray type="UInt8" Name="types" format="ascii">
4
4
4
4
4
4
4
4
4
4
4
4
4
4
4
4
4
4
4
4
4
4
4
      </DataArray>
    </Cells>
    <PointData>
      <DataArray type="Float64" NumberOfComponents="3" Name="Displacement" format="ascii">
.000000 .000000 .000000
.007557 .035575 .000000
.012412 .117963 .000000
.014280 .236278 .000000
.013261 .379678 .000000
.009735 .537260 .000000
-.017056 .588110 .000000
.000000 .000000 .000000
-.009844 .035183 .000000
-.018788 .117252 .000000
-.027114 .235209 .000000
-.034725 .378323 .000000
-.041253 .535856 .000000
      </DataArray>
      <DataArray type="Float64" NumberOfComponents="3" Name="Reactions" format="ascii">
3.196589 .237612 .000000
-.000000 .000000 .000000
.000000 .000000 .000000
.000000 .000000 .000000
.000000 .000000 .000000
-.000000 .000000 .000000
-.000000 -.200000 .000000
-3.196589 -.037612 .000000
-.000000 -.000000 .000000
.000000 -.000000 .000000
-.000000 -.000000 .000000
.000000 -.000000 .000000
-.000000 -.000000 .000000
      </DataArray>
    </PointData>
    <CellData>
    </CellData>
  </Piece>
  </UnstructuredGrid>
</VTKFile>
