<?xml version="1.0"?>
<VTKFile type="UnstructuredGrid">
  <UnstructuredGrid>
  <Piece NumberOfPoints="13"  NumberOfCells="23">
    <Points>
      <DataArray type="Float64" NumberOfComponents="3" format="ascii">
.000000 .000000 .000000
3.050096 .530947 .000000
5.911505 1.651716 .000000
8.560880 3.165418 .000000
11.031459 4.920281 .000000
13.385838 6.795349 .000000
13.870037 7.807636 .000000
.000000 1.000000 .000000
2.821216 1.494260 .000000
5.512467 2.561631 .000000
8.048149 4.019032 .000000
10.451272 5.731157 .000000
12.776067 7.585891 .000000
      </DataArray>
    </Points>
    <Cells>
      <DataArray type="Int32" Name="connectivity" format="ascii">
0 1
1 2
2 3
3 4
4 5
5 6
0 7
0 8
1 8
1 9
2 9
2 10
3 10
3 11
4 11
4 12
5 12
7 8
8 9
9 10
10 11
11 12
12 6
      </DataArray>
      <DataArray type="Int32" Name="offsets" format="ascii">
2
4
6
8
10
12
14
16
18
20
22
24
26
28
30
32
34
36
38
40
42
44
46
      </DataArray>
      <DataArray type="UInt8" Name="types" format="ascii">
4
4
4
4
4
4
4
4
4
4
4
4
4
4
4
4
4
4
4
4
4
4
4
      </DataArray>
    </Cells>
    <PointData>
      <DataArray type="Float64" NumberOfComponents="3" Name="Displacement" format="ascii">
.000000 .000000 .000000
.050096 .530947 .000000
-.088495 1.651716 .000000
-.439120 3.165418 .000000
-.968541 4.920281 .000000
-1.614162 6.795349 .000000
-2.129963 7.307636 .000000
.000000 .000000 .000000
-.178784 .494260 .000000
-.487533 1.561631 .000000
-.951851 3.019032 .000000
-1.548728 4.731157 .000000
-2.223933 6.585891 .000000
      </DataArray>
      <DataArray type="Float64" NumberOfComponents="3" Name="Reactions" format="ascii">
41.610111 10.289834 .000000
.000000 .000000 .000000
.000000 .000000 .000000
-.000000 .000000 .000000
-.000000 .000000 .000000
-.000000 .000000 .000000
-.000000 -3.000000 .000000
-41.610111 -7.289834 .000000
.000000 .000000 .000000
.000000 -.000000 .000000
.000000 -.000000 .000000
.000000 -.000000 .000000
.000000 -.000000 .000000
      </DataArray>
    </PointData>
    <CellData>
    </CellData>
  </Piece>
  </UnstructuredGrid>
</VTKFile>
