<?xml version="1.0"?>
<VTKFile type="UnstructuredGrid">
  <UnstructuredGrid>
  <Piece NumberOfPoints="13"  NumberOfCells="23">
    <Points>
      <DataArray type="Float64" NumberOfComponents="3" format="ascii">
.000000 .000000 .000000
3.017512 .839387 .000000
5.655436 2.464077 .000000
7.916516 4.537762 .000000
9.885435 6.854982 .000000
11.676952 9.279894 .000000
11.884382 10.384849 .000000
.000000 1.000000 .000000
2.687557 1.763607 .000000
5.099291 3.282365 .000000
7.226405 5.252759 .000000
9.123254 7.496219 .000000
10.885020 9.886474 .000000
      </DataArray>
    </Points>
    <Cells>
      <DataArray type="Int32" Name="connectivity" format="ascii">
0 1
1 2
2 3
3 4
4 5
5 6
0 7
0 8
1 8
1 9
2 9
2 10
3 10
3 11
4 11
4 12
5 12
7 8
8 9
9 10
10 11
11 12
12 6
      </DataArray>
      <DataArray type="Int32" Name="offsets" format="ascii">
2
4
6
8
10
12
14
16
18
20
22
24
26
28
30
32
34
36
38
40
42
44
46
      </DataArray>
      <DataArray type="UInt8" Name="types" format="ascii">
4
4
4
4
4
4
4
4
4
4
4
4
4
4
4
4
4
4
4
4
4
4
4
      </DataArray>
    </Cells>
    <PointData>
      <DataArray type="Float64" NumberOfComponents="3" Name="Displacement" format="ascii">
.000000 .000000 .000000
.017512 .839387 .000000
-.344564 2.464077 .000000
-1.083484 4.537762 .000000
-2.114565 6.854982 .000000
-3.323048 9.279894 .000000
-4.115618 9.884849 .000000
.000000 .000000 .000000
-.312443 .763607 .000000
-.900709 2.282365 .000000
-1.773595 4.252759 .000000
-2.876746 6.496219 .000000
-4.114980 8.886474 .000000
      </DataArray>
      <DataArray type="Float64" NumberOfComponents="3" Name="Reactions" format="ascii">
59.421911 21.883362 .000000
-.000000 .000000 .000000
.000000 -.000000 .000000
-.000000 .000000 .000000
.000000 -.000000 .000000
-.000000 .000000 .000000
.000000 -5.000000 .000000
-59.421911 -16.883362 .000000
.000000 .000000 .000000
-.000000 .000000 .000000
.000000 -.000000 .000000
-.000000 .000000 .000000
-.000000 -.000000 .000000
      </DataArray>
    </PointData>
    <CellData>
    </CellData>
  </Piece>
  </UnstructuredGrid>
</VTKFile>
