<?xml version="1.0"?>
<VTKFile type="UnstructuredGrid">
  <UnstructuredGrid>
  <Piece NumberOfPoints="13"  NumberOfCells="23">
    <Points>
      <DataArray type="Float64" NumberOfComponents="3" format="ascii">
.000000 .000000 .000000
3.036774 .217292 .000000
6.031302 .707504 .000000
8.974992 1.400928 .000000
11.872264 2.232087 .000000
14.736170 3.138637 .000000
15.544651 3.913269 .000000
.000000 1.000000 .000000
2.934773 1.209476 .000000
5.849330 1.688787 .000000
8.735024 2.370108 .000000
11.595387 3.191663 .000000
14.442530 4.093867 .000000
      </DataArray>
    </Points>
    <Cells>
      <DataArray type="Int32" Name="connectivity" format="ascii">
0 1
1 2
2 3
3 4
4 5
5 6
0 7
0 8
1 8
1 9
2 9
2 10
3 10
3 11
4 11
4 12
5 12
7 8
8 9
9 10
10 11
11 12
12 6
      </DataArray>
      <DataArray type="Int32" Name="offsets" format="ascii">
2
4
6
8
10
12
14
16
18
20
22
24
26
28
30
32
34
36
38
40
42
44
46
      </DataArray>
      <DataArray type="UInt8" Name="types" format="ascii">
4
4
4
4
4
4
4
4
4
4
4
4
4
4
4
4
4
4
4
4
4
4
4
      </DataArray>
    </Cells>
    <PointData>
      <DataArray type="Float64" NumberOfComponents="3" Name="Displacement" format="ascii">
.000000 .000000 .000000
.036774 .217292 .000000
.031302 .707504 .000000
-.025008 1.400928 .000000
-.127736 2.232087 .000000
-.263830 3.138637 .000000
-.455349 3.413269 .000000
.000000 .000000 .000000
-.065227 .209476 .000000
-.150670 .688787 .000000
-.264976 1.370108 .000000
-.404613 2.191663 .000000
-.557470 3.093867 .000000
      </DataArray>
      <DataArray type="Float64" NumberOfComponents="3" Name="Reactions" format="ascii">
18.653581 2.531444 .000000
.000000 .000000 .000000
.000000 .000000 .000000
.000000 .000000 .000000
.000000 .000000 .000000
-.000000 .000000 .000000
-.000000 -1.200000 .000000
-18.653581 -1.331444 .000000
.000000 -.000000 .000000
.000000 -.000000 .000000
.000000 -.000000 .000000
.000000 -.000000 .000000
-.000000 -.000000 .000000
      </DataArray>
    </PointData>
    <CellData>
    </CellData>
  </Piece>
  </UnstructuredGrid>
</VTKFile>
