<?xml version="1.0"?>
<VTKFile type="UnstructuredGrid">
  <UnstructuredGrid>
  <Piece NumberOfPoints="13"  NumberOfCells="23">
    <Points>
      <DataArray type="Float64" NumberOfComponents="3" format="ascii">
.000000 .000000 .000000
3.050935 .430198 .000000
5.968401 1.360353 .000000
8.731042 2.637991 .000000
11.359538 4.136849 .000000
13.898501 5.749802 .000000
14.486059 6.704910 .000000
.000000 1.000000 .000000
2.860068 1.404466 .000000
5.632643 2.297071 .000000
8.295322 3.534304 .000000
10.862881 5.001962 .000000
13.374720 6.600114 .000000
      </DataArray>
    </Points>
    <Cells>
      <DataArray type="Int32" Name="connectivity" format="ascii">
0 1
1 2
2 3
3 4
4 5
5 6
0 7
0 8
1 8
1 9
2 9
2 10
3 10
3 11
4 11
4 12
5 12
7 8
8 9
9 10
10 11
11 12
12 6
      </DataArray>
      <DataArray type="Int32" Name="offsets" format="ascii">
2
4
6
8
10
12
14
16
18
20
22
24
26
28
30
32
34
36
38
40
42
44
46
      </DataArray>
      <DataArray type="UInt8" Name="types" format="ascii">
4
4
4
4
4
4
4
4
4
4
4
4
4
4
4
4
4
4
4
4
4
4
4
      </DataArray>
    </Cells>
    <PointData>
      <DataArray type="Float64" NumberOfComponents="3" Name="Displacement" format="ascii">
.000000 .000000 .000000
.050935 .430198 .000000
-.031599 1.360353 .000000
-.268958 2.637991 .000000
-.640462 4.136849 .000000
-1.101499 5.749802 .000000
-1.513941 6.204910 .000000
.000000 .000000 .000000
-.139932 .404466 .000000
-.367357 1.297071 .000000
-.704678 2.534304 .000000
-1.137119 4.001962 .000000
-1.625280 5.600114 .000000
      </DataArray>
      <DataArray type="Float64" NumberOfComponents="3" Name="Reactions" format="ascii">
34.766542 7.316630 .000000
.000000 .000000 .000000
.000000 .000000 .000000
.000000 .000000 .000000
-.000000 .000000 .000000
-.000000 .000000 .000000
-.000000 -2.400000 .000000
-34.766542 -4.916630 .000000
.000000 -.000000 .000000
.000000 -.000000 .000000
.000000 -.000000 .000000
.000000 -.000000 .000000
.000000 -.000000 .000000
      </DataArray>
    </PointData>
    <CellData>
    </CellData>
  </Piece>
  </UnstructuredGrid>
</VTKFile>
