<?xml version="1.0"?>
<VTKFile type="UnstructuredGrid">
  <UnstructuredGrid>
  <Piece NumberOfPoints="13"  NumberOfCells="24">
    <Points>
      <DataArray type="Float64" NumberOfComponents="3" format="ascii">
.000000 50.000000 .000000
-43.301300 25.000000 .000000
-43.301300 -25.000000 .000000
.000000 -50.000000 .000000
43.301300 -25.000000 .000000
43.301300 25.000000 .000000
-12.414886 21.503179 5.300219
-24.829773 .000000 5.300222
-12.414886 -21.503179 5.300219
12.414886 -21.503179 5.300219
24.829773 -.000000 5.300222
12.414886 21.503179 5.300219
-.000000 -.000000 1.074356
      </DataArray>
    </Points>
    <Cells>
      <DataArray type="Int32" Name="connectivity" format="ascii">
0 6
0 11
1 6
1 7
2 7
2 8
3 8
3 9
4 9
4 10
5 10
5 11
6 7
7 8
8 9
9 10
10 11
11 6
6 12
7 12
8 12
9 12
10 12
11 12
      </DataArray>
      <DataArray type="Int32" Name="offsets" format="ascii">
2
4
6
8
10
12
14
16
18
20
22
24
26
28
30
32
34
36
38
40
42
44
46
48
      </DataArray>
      <DataArray type="UInt8" Name="types" format="ascii">
4
4
4
4
4
4
4
4
4
4
4
4
4
4
4
4
4
4
4
4
4
4
4
4
      </DataArray>
    </Cells>
    <PointData>
      <DataArray type="Float64" NumberOfComponents="3" Name="Displacement" format="ascii">
.000000 .000000 .000000
.000000 .000000 .000000
.000000 .000000 .000000
.000000 .000000 .000000
.000000 .000000 .000000
.000000 .000000 .000000
.085114 -.147421 -.915781
.170227 .000000 -.915778
.085114 .147421 -.915781
-.085114 .147421 -.915781
-.170227 -.000000 -.915778
-.085114 -.147421 -.915781
-.000000 -.000000 -7.141644
      </DataArray>
    </PointData>
    <CellData>
    </CellData>
  </Piece>
  </UnstructuredGrid>
</VTKFile>
