<?xml version="1.0"?>
<VTKFile type="UnstructuredGrid">
  <UnstructuredGrid>
  <Piece NumberOfPoints="13"  NumberOfCells="23">
    <Points>
      <DataArray type="Float64" NumberOfComponents="3" format="ascii">
.000000 .000000 .000000
-1.564148 2.401370 .000000
-1.508408 5.318347 .000000
-.990194 8.223284 .000000
-.184618 11.094157 .000000
.736386 13.960972 .000000
.000000 13.125920 .000000
.000000 1.000000 .000000
-2.535237 2.273648 .000000
-2.505758 5.380490 .000000
-1.974124 8.411391 .000000
-1.154924 11.348157 .000000
-.230228 14.223611 .000000
      </DataArray>
    </Points>
    <Cells>
      <DataArray type="Int32" Name="connectivity" format="ascii">
0 1
1 2
2 3
3 4
4 5
5 6
0 7
0 8
1 8
1 9
2 9
2 10
3 10
3 11
4 11
4 12
5 12
7 8
8 9
9 10
10 11
11 12
12 6
      </DataArray>
      <DataArray type="Int32" Name="offsets" format="ascii">
2
4
6
8
10
12
14
16
18
20
22
24
26
28
30
32
34
36
38
40
42
44
46
      </DataArray>
      <DataArray type="UInt8" Name="types" format="ascii">
4
4
4
4
4
4
4
4
4
4
4
4
4
4
4
4
4
4
4
4
4
4
4
      </DataArray>
    </Cells>
    <PointData>
      <DataArray type="Float64" NumberOfComponents="3" Name="Displacement" format="ascii">
.000000 .000000 .000000
-4.564148 2.401370 .000000
-7.508408 5.318347 .000000
-9.990194 8.223284 .000000
-12.184618 11.094157 .000000
-14.263614 13.960972 .000000
-16.000000 12.625920 .000000
.000000 .000000 .000000
-5.535237 1.273648 .000000
-8.505758 4.380490 .000000
-10.974124 7.411391 .000000
-13.154924 10.348157 .000000
-15.230228 13.223611 .000000
      </DataArray>
      <DataArray type="Float64" NumberOfComponents="3" Name="Reactions" format="ascii">
-41.220629 22.416123 .000000
-.000000 .000000 .000000
-.000000 -.000000 .000000
-.000000 .000000 .000000
.000000 .000000 .000000
-.000000 -.000000 .000000
-3.399382 .000000 .000000
44.620010 -22.416123 .000000
.000000 .000000 .000000
.000000 -.000000 .000000
.000000 -.000000 .000000
.000000 .000000 .000000
.000000 -.000000 .000000
      </DataArray>
    </PointData>
    <CellData>
    </CellData>
  </Piece>
  </UnstructuredGrid>
</VTKFile>
