<?xml version="1.0"?>
<VTKFile type="UnstructuredGrid">
  <UnstructuredGrid>
  <Piece NumberOfPoints="13"  NumberOfCells="23">
    <Points>
      <DataArray type="Float64" NumberOfComponents="3" format="ascii">
.000000 .000000 .000000
3.064799 .551504 .000000
5.823487 1.947537 .000000
8.178109 3.902208 .000000
10.199183 6.149414 .000000
12.054966 8.481723 .000000
11.000000 8.088157 .000000
.000000 1.000000 .000000
2.795884 1.498921 .000000
5.328499 2.803136 .000000
7.532865 4.656092 .000000
9.477981 6.834603 .000000
11.321466 9.155903 .000000
      </DataArray>
    </Points>
    <Cells>
      <DataArray type="Int32" Name="connectivity" format="ascii">
0 1
1 2
2 3
3 4
4 5
5 6
0 7
0 8
1 8
1 9
2 9
2 10
3 10
3 11
4 11
4 12
5 12
7 8
8 9
9 10
10 11
11 12
12 6
      </DataArray>
      <DataArray type="Int32" Name="offsets" format="ascii">
2
4
6
8
10
12
14
16
18
20
22
24
26
28
30
32
34
36
38
40
42
44
46
      </DataArray>
      <DataArray type="UInt8" Name="types" format="ascii">
4
4
4
4
4
4
4
4
4
4
4
4
4
4
4
4
4
4
4
4
4
4
4
      </DataArray>
    </Cells>
    <PointData>
      <DataArray type="Float64" NumberOfComponents="3" Name="Displacement" format="ascii">
.000000 .000000 .000000
.064799 .551504 .000000
-.176513 1.947537 .000000
-.821891 3.902208 .000000
-1.800817 6.149414 .000000
-2.945034 8.481723 .000000
-5.000000 7.588157 .000000
.000000 .000000 .000000
-.204116 .498921 .000000
-.671501 1.803136 .000000
-1.467135 3.656092 .000000
-2.522019 5.834603 .000000
-3.678534 8.155903 .000000
      </DataArray>
      <DataArray type="Float64" NumberOfComponents="3" Name="Reactions" format="ascii">
42.384450 8.630496 .000000
.000000 .000000 .000000
.000000 -.000000 .000000
-.000000 .000000 .000000
.000000 .000000 .000000
-.000000 .000000 .000000
5.979615 -.000000 .000000
-48.364065 -8.630496 .000000
.000000 -.000000 .000000
-.000000 -.000000 .000000
.000000 -.000000 .000000
.000000 -.000000 .000000
-.000000 -.000000 .000000
      </DataArray>
    </PointData>
    <CellData>
    </CellData>
  </Piece>
  </UnstructuredGrid>
</VTKFile>
