<?xml version="1.0"?>
<VTKFile type="UnstructuredGrid">
  <UnstructuredGrid>
  <Piece NumberOfPoints="13"  NumberOfCells="23">
    <Points>
      <DataArray type="Float64" NumberOfComponents="3" format="ascii">
.000000 .000000 .000000
3.063144 .656385 .000000
5.700767 2.296722 .000000
7.807663 4.529105 .000000
9.497666 7.040040 .000000
10.991478 9.617929 .000000
10.000000 9.083309 .000000
.000000 1.000000 .000000
2.750803 1.584229 .000000
5.130597 3.099993 .000000
7.076582 5.197587 .000000
8.690309 7.619875 .000000
10.171922 10.183893 .000000
      </DataArray>
    </Points>
    <Cells>
      <DataArray type="Int32" Name="connectivity" format="ascii">
0 1
1 2
2 3
3 4
4 5
5 6
0 7
0 8
1 8
1 9
2 9
2 10
3 10
3 11
4 11
4 12
5 12
7 8
8 9
9 10
10 11
11 12
12 6
      </DataArray>
      <DataArray type="Int32" Name="offsets" format="ascii">
2
4
6
8
10
12
14
16
18
20
22
24
26
28
30
32
34
36
38
40
42
44
46
      </DataArray>
      <DataArray type="UInt8" Name="types" format="ascii">
4
4
4
4
4
4
4
4
4
4
4
4
4
4
4
4
4
4
4
4
4
4
4
      </DataArray>
    </Cells>
    <PointData>
      <DataArray type="Float64" NumberOfComponents="3" Name="Displacement" format="ascii">
.000000 .000000 .000000
.063144 .656385 .000000
-.299233 2.296722 .000000
-1.192337 4.529105 .000000
-2.502334 7.040040 .000000
-4.008522 9.617929 .000000
-6.000000 8.583309 .000000
.000000 .000000 .000000
-.249197 .584229 .000000
-.869403 2.099993 .000000
-1.923418 4.197587 .000000
-3.309691 6.619875 .000000
-4.828078 9.183893 .000000
      </DataArray>
      <DataArray type="Float64" NumberOfComponents="3" Name="Reactions" format="ascii">
49.492359 11.811826 .000000
.000000 .000000 .000000
-.000000 -.000000 .000000
.000000 .000000 .000000
.000000 .000000 .000000
-.000000 .000000 .000000
6.122785 .000000 .000000
-55.615144 -11.811826 .000000
.000000 .000000 .000000
-.000000 .000000 .000000
-.000000 .000000 .000000
.000000 -.000000 .000000
-.000000 -.000000 .000000
      </DataArray>
    </PointData>
    <CellData>
    </CellData>
  </Piece>
  </UnstructuredGrid>
</VTKFile>
