<?xml version="1.0"?>
<VTKFile type="UnstructuredGrid">
  <UnstructuredGrid>
  <Piece NumberOfPoints="13"  NumberOfCells="23">
    <Points>
      <DataArray type="Float64" NumberOfComponents="3" format="ascii">
.000000 .000000 .000000
3.057010 .754902 .000000
5.557324 2.617600 .000000
7.408163 5.075969 .000000
8.772731 7.781566 .000000
9.918720 10.530993 .000000
9.000000 9.878720 .000000
.000000 1.000000 .000000
2.706765 1.662174 .000000
4.922706 3.366757 .000000
6.608840 5.658672 .000000
7.901040 8.257919 .000000
9.035578 10.991057 .000000
      </DataArray>
    </Points>
    <Cells>
      <DataArray type="Int32" Name="connectivity" format="ascii">
0 1
1 2
2 3
3 4
4 5
5 6
0 7
0 8
1 8
1 9
2 9
2 10
3 10
3 11
4 11
4 12
5 12
7 8
8 9
9 10
10 11
11 12
12 6
      </DataArray>
      <DataArray type="Int32" Name="offsets" format="ascii">
2
4
6
8
10
12
14
16
18
20
22
24
26
28
30
32
34
36
38
40
42
44
46
      </DataArray>
      <DataArray type="UInt8" Name="types" format="ascii">
4
4
4
4
4
4
4
4
4
4
4
4
4
4
4
4
4
4
4
4
4
4
4
      </DataArray>
    </Cells>
    <PointData>
      <DataArray type="Float64" NumberOfComponents="3" Name="Displacement" format="ascii">
.000000 .000000 .000000
.057010 .754902 .000000
-.442676 2.617600 .000000
-1.591837 5.075969 .000000
-3.227269 7.781566 .000000
-5.081280 10.530993 .000000
-7.000000 9.378720 .000000
.000000 .000000 .000000
-.293235 .662174 .000000
-1.077294 2.366757 .000000
-2.391160 4.658672 .000000
-4.098960 7.257919 .000000
-5.964422 9.991057 .000000
      </DataArray>
      <DataArray type="Float64" NumberOfComponents="3" Name="Reactions" format="ascii">
55.635907 15.143532 .000000
.000000 .000000 .000000
-.000000 .000000 .000000
-.000000 -.000000 .000000
.000000 .000000 .000000
-.000000 .000000 .000000
6.266208 .000000 .000000
-61.902115 -15.143532 .000000
.000000 .000000 .000000
-.000000 -.000000 .000000
-.000000 -.000000 .000000
.000000 .000000 .000000
-.000000 -.000000 .000000
      </DataArray>
    </PointData>
    <CellData>
    </CellData>
  </Piece>
  </UnstructuredGrid>
</VTKFile>
