<?xml version="1.0"?>
<VTKFile type="UnstructuredGrid">
  <UnstructuredGrid>
  <Piece NumberOfPoints="13"  NumberOfCells="23">
    <Points>
      <DataArray type="Float64" NumberOfComponents="3" format="ascii">
.000000 .000000 .000000
-1.488337 2.436725 .000000
-1.197245 5.336435 .000000
-.430148 8.184346 .000000
.629468 10.971381 .000000
1.806976 13.743770 .000000
1.000000 12.977313 .000000
.000000 1.000000 .000000
-2.462441 2.378355 .000000
-2.186184 5.478961 .000000
-1.394321 8.456293 .000000
-.314733 11.310073 .000000
.867264 14.090947 .000000
      </DataArray>
    </Points>
    <Cells>
      <DataArray type="Int32" Name="connectivity" format="ascii">
0 1
1 2
2 3
3 4
4 5
5 6
0 7
0 8
1 8
1 9
2 9
2 10
3 10
3 11
4 11
4 12
5 12
7 8
8 9
9 10
10 11
11 12
12 6
      </DataArray>
      <DataArray type="Int32" Name="offsets" format="ascii">
2
4
6
8
10
12
14
16
18
20
22
24
26
28
30
32
34
36
38
40
42
44
46
      </DataArray>
      <DataArray type="UInt8" Name="types" format="ascii">
4
4
4
4
4
4
4
4
4
4
4
4
4
4
4
4
4
4
4
4
4
4
4
      </DataArray>
    </Cells>
    <PointData>
      <DataArray type="Float64" NumberOfComponents="3" Name="Displacement" format="ascii">
.000000 .000000 .000000
-4.488337 2.436725 .000000
-7.197245 5.336435 .000000
-9.430148 8.184346 .000000
-11.370532 10.971381 .000000
-13.193024 13.743770 .000000
-15.000000 12.477313 .000000
.000000 .000000 .000000
-5.462441 1.378355 .000000
-8.186184 4.478961 .000000
-10.394321 7.456293 .000000
-12.314733 10.310073 .000000
-14.132736 13.090947 .000000
      </DataArray>
      <DataArray type="Float64" NumberOfComponents="3" Name="Reactions" format="ascii">
-43.623895 26.457276 .000000
-.000000 .000000 .000000
-.000000 -.000000 .000000
-.000000 .000000 .000000
.000000 .000000 .000000
-.000000 -.000000 .000000
-3.642211 .000000 .000000
47.266105 -26.457276 .000000
.000000 .000000 .000000
.000000 -.000000 .000000
.000000 -.000000 .000000
.000000 .000000 .000000
-.000000 -.000000 .000000
      </DataArray>
    </PointData>
    <CellData>
    </CellData>
  </Piece>
  </UnstructuredGrid>
</VTKFile>
