<?xml version="1.0"?>
<VTKFile type="UnstructuredGrid">
  <UnstructuredGrid>
  <Piece NumberOfPoints="13"  NumberOfCells="23">
    <Points>
      <DataArray type="Float64" NumberOfComponents="3" format="ascii">
.000000 .000000 .000000
-1.976408 2.162823 .000000
-3.223379 4.836474 .000000
-4.214853 7.634666 .000000
-5.041174 10.505106 .000000
-5.803921 13.411738 .000000
-6.000000 12.313173 .000000
.000000 1.000000 .000000
-2.840725 1.669663 .000000
-4.142114 4.440574 .000000
-5.162090 7.309903 .000000
-6.001550 10.219715 .000000
-6.764943 13.132427 .000000
      </DataArray>
    </Points>
    <Cells>
      <DataArray type="Int32" Name="connectivity" format="ascii">
0 1
1 2
2 3
3 4
4 5
5 6
0 7
0 8
1 8
1 9
2 9
2 10
3 10
3 11
4 11
4 12
5 12
7 8
8 9
9 10
10 11
11 12
12 6
      </DataArray>
      <DataArray type="Int32" Name="offsets" format="ascii">
2
4
6
8
10
12
14
16
18
20
22
24
26
28
30
32
34
36
38
40
42
44
46
      </DataArray>
      <DataArray type="UInt8" Name="types" format="ascii">
4
4
4
4
4
4
4
4
4
4
4
4
4
4
4
4
4
4
4
4
4
4
4
      </DataArray>
    </Cells>
    <PointData>
      <DataArray type="Float64" NumberOfComponents="3" Name="Displacement" format="ascii">
.000000 .000000 .000000
-4.976408 2.162823 .000000
-9.223379 4.836474 .000000
-13.214853 7.634666 .000000
-17.041174 10.505106 .000000
-20.803921 13.411738 .000000
-22.000000 11.813173 .000000
.000000 .000000 .000000
-5.840725 .669663 .000000
-10.142114 3.440574 .000000
-14.162090 6.309903 .000000
-18.001550 9.219715 .000000
-21.764943 12.132427 .000000
      </DataArray>
      <DataArray type="Float64" NumberOfComponents="3" Name="Reactions" format="ascii">
-23.288829 5.975304 .000000
.000000 -.000000 .000000
.000000 .000000 .000000
.000000 -.000000 .000000
.000000 -.000000 .000000
-.000000 .000000 .000000
-2.058558 -.000000 .000000
25.347388 -5.975304 .000000
-.000000 -.000000 .000000
-.000000 .000000 .000000
-.000000 .000000 .000000
-.000000 -.000000 .000000
-.000000 .000000 .000000
      </DataArray>
    </PointData>
    <CellData>
    </CellData>
  </Piece>
  </UnstructuredGrid>
</VTKFile>
