<?xml version="1.0"?>
<VTKFile type="UnstructuredGrid">
  <UnstructuredGrid>
  <Piece NumberOfPoints="13"  NumberOfCells="23">
    <Points>
      <DataArray type="Float64" NumberOfComponents="3" format="ascii">
.000000 .000000 .000000
-2.044924 2.113730 .000000
-3.498406 4.689401 .000000
-4.743503 7.389190 .000000
-5.854036 10.163842 .000000
-6.913616 12.974788 .000000
-7.000000 11.861780 .000000
.000000 1.000000 .000000
-2.876930 1.564796 .000000
-4.381958 4.219942 .000000
-5.656446 6.978090 .000000
-6.781312 9.785160 .000000
-7.841916 12.601253 .000000
      </DataArray>
    </Points>
    <Cells>
      <DataArray type="Int32" Name="connectivity" format="ascii">
0 1
1 2
2 3
3 4
4 5
5 6
0 7
0 8
1 8
1 9
2 9
2 10
3 10
3 11
4 11
4 12
5 12
7 8
8 9
9 10
10 11
11 12
12 6
      </DataArray>
      <DataArray type="Int32" Name="offsets" format="ascii">
2
4
6
8
10
12
14
16
18
20
22
24
26
28
30
32
34
36
38
40
42
44
46
      </DataArray>
      <DataArray type="UInt8" Name="types" format="ascii">
4
4
4
4
4
4
4
4
4
4
4
4
4
4
4
4
4
4
4
4
4
4
4
      </DataArray>
    </Cells>
    <PointData>
      <DataArray type="Float64" NumberOfComponents="3" Name="Displacement" format="ascii">
.000000 .000000 .000000
-5.044924 2.113730 .000000
-9.498406 4.689401 .000000
-13.743503 7.389190 .000000
-17.854036 10.163842 .000000
-21.913616 12.974788 .000000
-23.000000 11.361780 .000000
.000000 .000000 .000000
-5.876930 .564796 .000000
-10.381958 3.219942 .000000
-14.656446 5.978090 .000000
-18.781312 8.785160 .000000
-22.841916 11.601253 .000000
      </DataArray>
      <DataArray type="Float64" NumberOfComponents="3" Name="Reactions" format="ascii">
-19.722773 4.228432 .000000
-.000000 .000000 .000000
.000000 -.000000 .000000
-.000000 -.000000 .000000
-.000000 -.000000 .000000
-.000000 .000000 .000000
-1.815796 -.000000 .000000
21.538569 -4.228432 .000000
.000000 .000000 .000000
-.000000 .000000 .000000
.000000 -.000000 .000000
.000000 .000000 .000000
-.000000 .000000 .000000
      </DataArray>
    </PointData>
    <CellData>
    </CellData>
  </Piece>
  </UnstructuredGrid>
</VTKFile>
