<?xml version="1.0"?>
<VTKFile type="UnstructuredGrid">
  <UnstructuredGrid>
  <Piece NumberOfPoints="13"  NumberOfCells="23">
    <Points>
      <DataArray type="Float64" NumberOfComponents="3" format="ascii">
.000000 .000000 .000000
-1.908972 2.208174 .000000
-2.947871 4.962078 .000000
-3.686339 7.833285 .000000
-4.230985 10.768792 .000000
-4.700098 13.738037 .000000
-5.000000 12.663614 .000000
.000000 1.000000 .000000
-2.801109 1.771710 .000000
-3.894936 4.640283 .000000
-4.658974 7.594716 .000000
-5.214395 10.576026 .000000
-5.683628 13.552159 .000000
      </DataArray>
    </Points>
    <Cells>
      <DataArray type="Int32" Name="connectivity" format="ascii">
0 1
1 2
2 3
3 4
4 5
5 6
0 7
0 8
1 8
1 9
2 9
2 10
3 10
3 11
4 11
4 12
5 12
7 8
8 9
9 10
10 11
11 12
12 6
      </DataArray>
      <DataArray type="Int32" Name="offsets" format="ascii">
2
4
6
8
10
12
14
16
18
20
22
24
26
28
30
32
34
36
38
40
42
44
46
      </DataArray>
      <DataArray type="UInt8" Name="types" format="ascii">
4
4
4
4
4
4
4
4
4
4
4
4
4
4
4
4
4
4
4
4
4
4
4
      </DataArray>
    </Cells>
    <PointData>
      <DataArray type="Float64" NumberOfComponents="3" Name="Displacement" format="ascii">
.000000 .000000 .000000
-4.908972 2.208174 .000000
-8.947871 4.962078 .000000
-12.686339 7.833285 .000000
-16.230985 10.768792 .000000
-19.700098 13.738037 .000000
-21.000000 12.163614 .000000
.000000 .000000 .000000
-5.801109 .771710 .000000
-9.894936 3.640283 .000000
-13.658974 6.594716 .000000
-17.214395 9.576026 .000000
-20.683628 12.552159 .000000
      </DataArray>
      <DataArray type="Float64" NumberOfComponents="3" Name="Reactions" format="ascii">
-26.671172 7.977936 .000000
-.000000 .000000 .000000
-.000000 -.000000 .000000
-.000000 .000000 .000000
-.000000 .000000 .000000
-.000000 -.000000 .000000
-2.286699 .000000 .000000
28.957871 -7.977936 .000000
.000000 .000000 .000000
.000000 -.000000 .000000
.000000 -.000000 .000000
.000000 .000000 .000000
.000000 -.000000 .000000
      </DataArray>
    </PointData>
    <CellData>
    </CellData>
  </Piece>
  </UnstructuredGrid>
</VTKFile>
