<?xml version="1.0"?>
<VTKFile type="UnstructuredGrid">
  <UnstructuredGrid>
  <Piece NumberOfPoints="13"  NumberOfCells="23">
    <Points>
      <DataArray type="Float64" NumberOfComponents="3" format="ascii">
.000000 .000000 .000000
-2.302048 1.875556 .000000
-4.455681 3.824022 .000000
-6.344596 6.424579 .000000
-7.430238 3.728567 .000000
-8.968041 1.173384 .000000
-9.000000 .063135 .000000
.000000 1.000000 .000000
-2.997102 1.166235 .000000
-5.224745 3.246895 .000000
-5.412486 6.360760 .000000
-6.491776 3.374020 .000000
-8.076033 .714380 .000000
      </DataArray>
    </Points>
    <Cells>
      <DataArray type="Int32" Name="connectivity" format="ascii">
0 1
1 2
2 3
3 4
4 5
5 6
0 7
0 8
1 8
1 9
2 9
2 10
3 10
3 11
4 11
4 12
5 12
7 8
8 9
9 10
10 11
11 12
12 6
      </DataArray>
      <DataArray type="Int32" Name="offsets" format="ascii">
2
4
6
8
10
12
14
16
18
20
22
24
26
28
30
32
34
36
38
40
42
44
46
      </DataArray>
      <DataArray type="UInt8" Name="types" format="ascii">
4
4
4
4
4
4
4
4
4
4
4
4
4
4
4
4
4
4
4
4
4
4
4
      </DataArray>
    </Cells>
    <PointData>
      <DataArray type="Float64" NumberOfComponents="3" Name="Displacement" format="ascii">
.000000 .000000 .000000
-5.302048 1.875556 .000000
-10.455681 3.824022 .000000
-15.344596 6.424579 .000000
-19.430238 3.728567 .000000
-23.968041 1.173384 .000000
-25.000000 -.436865 .000000
.000000 .000000 .000000
-5.997102 .166235 .000000
-11.224745 2.246895 .000000
-14.412486 5.360760 .000000
-18.491776 2.374020 .000000
-23.076033 -.285620 .000000
      </DataArray>
      <DataArray type="Float64" NumberOfComponents="3" Name="Reactions" format="ascii">
-8.445556 -.031568 .000000
.000000 -.000000 .000000
.000000 -.000000 .000000
-.000000 .000000 .000000
-.000000 -.000000 .000000
.000000 -.000000 .000000
9.014703 .000000 .000000
-.569147 .031568 .000000
.000000 -.000000 .000000
-.000000 -.000000 .000000
-.000000 .000000 .000000
.000000 -.000000 .000000
-.000000 .000000 .000000
      </DataArray>
    </PointData>
    <CellData>
    </CellData>
  </Piece>
  </UnstructuredGrid>
</VTKFile>
