<?xml version="1.0"?>
<VTKFile type="UnstructuredGrid">
  <UnstructuredGrid>
  <Piece NumberOfPoints="13"  NumberOfCells="23">
    <Points>
      <DataArray type="Float64" NumberOfComponents="3" format="ascii">
.000000 .000000 .000000
-1.636451 2.365555 .000000
-1.809587 5.281901 .000000
-1.541363 8.222388 .000000
-.996087 11.154201 .000000
-.339937 14.091957 .000000
-1.000000 13.194839 .000000
.000000 1.000000 .000000
-2.599874 2.171560 .000000
-2.808895 5.265019 .000000
-2.537699 8.325999 .000000
-1.984876 11.321660 .000000
-1.325859 14.268036 .000000
      </DataArray>
    </Points>
    <Cells>
      <DataArray type="Int32" Name="connectivity" format="ascii">
0 1
1 2
2 3
3 4
4 5
5 6
0 7
0 8
1 8
1 9
2 9
2 10
3 10
3 11
4 11
4 12
5 12
7 8
8 9
9 10
10 11
11 12
12 6
      </DataArray>
      <DataArray type="Int32" Name="offsets" format="ascii">
2
4
6
8
10
12
14
16
18
20
22
24
26
28
30
32
34
36
38
40
42
44
46
      </DataArray>
      <DataArray type="UInt8" Name="types" format="ascii">
4
4
4
4
4
4
4
4
4
4
4
4
4
4
4
4
4
4
4
4
4
4
4
      </DataArray>
    </Cells>
    <PointData>
      <DataArray type="Float64" NumberOfComponents="3" Name="Displacement" format="ascii">
.000000 .000000 .000000
-4.636451 2.365555 .000000
-7.809587 5.281901 .000000
-10.541363 8.222388 .000000
-12.996087 11.154201 .000000
-15.339937 14.091957 .000000
-17.000000 12.694839 .000000
.000000 .000000 .000000
-5.599874 1.171560 .000000
-8.808895 4.265019 .000000
-11.537699 7.325999 .000000
-13.984876 10.321660 .000000
-16.325859 13.268036 .000000
      </DataArray>
      <DataArray type="Float64" NumberOfComponents="3" Name="Reactions" format="ascii">
-38.627918 18.833946 .000000
-.000000 .000000 .000000
-.000000 -.000000 .000000
-.000000 .000000 .000000
-.000000 .000000 .000000
-.000000 -.000000 .000000
-3.167563 .000000 .000000
41.795481 -18.833946 .000000
.000000 .000000 .000000
.000000 -.000000 .000000
.000000 -.000000 .000000
.000000 .000000 .000000
.000000 -.000000 .000000
      </DataArray>
    </PointData>
    <CellData>
    </CellData>
  </Piece>
  </UnstructuredGrid>
</VTKFile>
