<?xml version="1.0"?>
<VTKFile type="UnstructuredGrid">
  <UnstructuredGrid>
  <Piece NumberOfPoints="13"  NumberOfCells="23">
    <Points>
      <DataArray type="Float64" NumberOfComponents="3" format="ascii">
.000000 .000000 .000000
3.047173 .848620 .000000
5.391379 2.919146 .000000
6.979485 5.562054 .000000
8.026296 8.408814 .000000
8.839794 11.273840 .000000
8.000000 10.522420 .000000
.000000 1.000000 .000000
2.663458 1.734232 .000000
4.700014 3.612113 .000000
6.125498 6.058778 .000000
7.107068 8.783996 .000000
7.910308 11.630786 .000000
      </DataArray>
    </Points>
    <Cells>
      <DataArray type="Int32" Name="connectivity" format="ascii">
0 1
1 2
2 3
3 4
4 5
5 6
0 7
0 8
1 8
1 9
2 9
2 10
3 10
3 11
4 11
4 12
5 12
7 8
8 9
9 10
10 11
11 12
12 6
      </DataArray>
      <DataArray type="Int32" Name="offsets" format="ascii">
2
4
6
8
10
12
14
16
18
20
22
24
26
28
30
32
34
36
38
40
42
44
46
      </DataArray>
      <DataArray type="UInt8" Name="types" format="ascii">
4
4
4
4
4
4
4
4
4
4
4
4
4
4
4
4
4
4
4
4
4
4
4
      </DataArray>
    </Cells>
    <PointData>
      <DataArray type="Float64" NumberOfComponents="3" Name="Displacement" format="ascii">
.000000 .000000 .000000
.047173 .848620 .000000
-.608621 2.919146 .000000
-2.020515 5.562054 .000000
-3.973704 8.408814 .000000
-6.160206 11.273840 .000000
-8.000000 10.022420 .000000
.000000 .000000 .000000
-.336542 .734232 .000000
-1.299986 2.612113 .000000
-2.874502 5.058778 .000000
-4.892932 7.783996 .000000
-7.089692 10.630786 .000000
      </DataArray>
      <DataArray type="Float64" NumberOfComponents="3" Name="Reactions" format="ascii">
61.012464 18.585502 .000000
.000000 .000000 .000000
-.000000 .000000 .000000
-.000000 -.000000 .000000
.000000 .000000 .000000
-.000000 -.000000 .000000
6.407243 .000000 .000000
-67.419707 -18.585502 .000000
.000000 .000000 .000000
-.000000 -.000000 .000000
-.000000 -.000000 .000000
.000000 .000000 .000000
-.000000 -.000000 .000000
      </DataArray>
    </PointData>
    <CellData>
    </CellData>
  </Piece>
  </UnstructuredGrid>
</VTKFile>
