<?xml version="1.0"?>
<VTKFile type="UnstructuredGrid">
  <UnstructuredGrid>
  <Piece NumberOfPoints="13"  NumberOfCells="23">
    <Points>
      <DataArray type="Float64" NumberOfComponents="3" format="ascii">
.000000 .000000 .000000
-2.267529 1.907476 .000000
-4.335309 3.942617 .000000
-6.315195 6.448767 .000000
-6.983195 3.619752 .000000
-8.128755 .867860 .000000
-8.000000 -.234756 .000000
.000000 1.000000 .000000
-2.985969 1.222003 .000000
-5.129265 3.394185 .000000
-5.368497 6.501033 .000000
-6.004489 3.400692 .000000
-7.179905 .541471 .000000
      </DataArray>
    </Points>
    <Cells>
      <DataArray type="Int32" Name="connectivity" format="ascii">
0 1
1 2
2 3
3 4
4 5
5 6
0 7
0 8
1 8
1 9
2 9
2 10
3 10
3 11
4 11
4 12
5 12
7 8
8 9
9 10
10 11
11 12
12 6
      </DataArray>
      <DataArray type="Int32" Name="offsets" format="ascii">
2
4
6
8
10
12
14
16
18
20
22
24
26
28
30
32
34
36
38
40
42
44
46
      </DataArray>
      <DataArray type="UInt8" Name="types" format="ascii">
4
4
4
4
4
4
4
4
4
4
4
4
4
4
4
4
4
4
4
4
4
4
4
      </DataArray>
    </Cells>
    <PointData>
      <DataArray type="Float64" NumberOfComponents="3" Name="Displacement" format="ascii">
.000000 .000000 .000000
-5.267529 1.907476 .000000
-10.335309 3.942617 .000000
-15.315195 6.448767 .000000
-18.983195 3.619752 .000000
-23.128755 .867860 .000000
-24.000000 -.734756 .000000
.000000 .000000 .000000
-5.985969 .222003 .000000
-11.129265 2.394185 .000000
-14.368497 5.501033 .000000
-18.004489 2.400692 .000000
-22.179905 -.458529 .000000
      </DataArray>
      <DataArray type="Float64" NumberOfComponents="3" Name="Reactions" format="ascii">
-10.092633 .142664 .000000
-.000000 .000000 .000000
-.000000 .000000 .000000
.000000 -.000000 .000000
.000000 -.000000 .000000
.000000 -.000000 .000000
8.173784 .000000 .000000
1.918848 -.142664 .000000
.000000 .000000 .000000
.000000 .000000 .000000
-.000000 -.000000 .000000
-.000000 .000000 .000000
-.000000 .000000 .000000
      </DataArray>
    </PointData>
    <CellData>
    </CellData>
  </Piece>
  </UnstructuredGrid>
</VTKFile>
