<?xml version="1.0"?>
<VTKFile type="UnstructuredGrid">
  <UnstructuredGrid>
  <Piece NumberOfPoints="13"  NumberOfCells="23">
    <Points>
      <DataArray type="Float64" NumberOfComponents="3" format="ascii">
.000000 .000000 .000000
-1.319144 2.509054 .000000
-.535726 5.312261 .000000
.723693 7.978228 .000000
2.268762 10.529127 .000000
3.929794 13.043995 .000000
3.000000 12.433723 .000000
.000000 1.000000 .000000
-2.282678 2.600723 .000000
-1.486267 5.619905 .000000
-.177955 8.415027 .000000
1.399738 11.030416 .000000
3.066624 13.552954 .000000
      </DataArray>
    </Points>
    <Cells>
      <DataArray type="Int32" Name="connectivity" format="ascii">
0 1
1 2
2 3
3 4
4 5
5 6
0 7
0 8
1 8
1 9
2 9
2 10
3 10
3 11
4 11
4 12
5 12
7 8
8 9
9 10
10 11
11 12
12 6
      </DataArray>
      <DataArray type="Int32" Name="offsets" format="ascii">
2
4
6
8
10
12
14
16
18
20
22
24
26
28
30
32
34
36
38
40
42
44
46
      </DataArray>
      <DataArray type="UInt8" Name="types" format="ascii">
4
4
4
4
4
4
4
4
4
4
4
4
4
4
4
4
4
4
4
4
4
4
4
      </DataArray>
    </Cells>
    <PointData>
      <DataArray type="Float64" NumberOfComponents="3" Name="Displacement" format="ascii">
.000000 .000000 .000000
-4.319144 2.509054 .000000
-6.535726 5.312261 .000000
-8.276307 7.978228 .000000
-9.731238 10.529127 .000000
-11.070206 13.043995 .000000
-13.000000 11.933723 .000000
.000000 .000000 .000000
-5.282678 1.600723 .000000
-7.486267 4.619905 .000000
-9.177955 7.415027 .000000
-10.600262 10.030416 .000000
-11.933376 12.552954 .000000
      </DataArray>
      <DataArray type="Float64" NumberOfComponents="3" Name="Reactions" format="ascii">
-47.698498 36.373889 .000000
.000000 -.000000 .000000
.000000 .000000 .000000
.000000 .000000 .000000
-.000000 .000000 .000000
-.000000 -.000000 .000000
-4.171738 .000000 .000000
51.870236 -36.373889 .000000
.000000 -.000000 .000000
.000000 .000000 .000000
.000000 .000000 .000000
.000000 -.000000 .000000
-.000000 -.000000 .000000
      </DataArray>
    </PointData>
    <CellData>
    </CellData>
  </Piece>
  </UnstructuredGrid>
</VTKFile>
