<?xml version="1.0"?>
<VTKFile type="UnstructuredGrid">
  <UnstructuredGrid>
  <Piece NumberOfPoints="13"  NumberOfCells="23">
    <Points>
      <DataArray type="Float64" NumberOfComponents="3" format="ascii">
.000000 .000000 .000000
3.047057 .296408 .000000
5.999626 1.058973 .000000
8.815692 2.181330 .000000
11.506179 3.529319 .000000
14.124213 4.962774 .000000
13.000000 4.974901 .000000
.000000 1.000000 .000000
2.897394 1.280288 .000000
5.719449 2.014419 .000000
8.439570 3.104123 .000000
11.076303 4.429040 .000000
13.685439 5.858285 .000000
      </DataArray>
    </Points>
    <Cells>
      <DataArray type="Int32" Name="connectivity" format="ascii">
0 1
1 2
2 3
3 4
4 5
5 6
0 7
0 8
1 8
1 9
2 9
2 10
3 10
3 11
4 11
4 12
5 12
7 8
8 9
9 10
10 11
11 12
12 6
      </DataArray>
      <DataArray type="Int32" Name="offsets" format="ascii">
2
4
6
8
10
12
14
16
18
20
22
24
26
28
30
32
34
36
38
40
42
44
46
      </DataArray>
      <DataArray type="UInt8" Name="types" format="ascii">
4
4
4
4
4
4
4
4
4
4
4
4
4
4
4
4
4
4
4
4
4
4
4
      </DataArray>
    </Cells>
    <PointData>
      <DataArray type="Float64" NumberOfComponents="3" Name="Displacement" format="ascii">
.000000 .000000 .000000
.047057 .296408 .000000
-.000374 1.058973 .000000
-.184308 2.181330 .000000
-.493821 3.529319 .000000
-.875787 4.962774 .000000
-3.000000 4.474901 .000000
.000000 .000000 .000000
-.102606 .280288 .000000
-.280551 1.014419 .000000
-.560430 2.104123 .000000
-.923697 3.429040 .000000
-1.314561 4.858285 .000000
      </DataArray>
      <DataArray type="Float64" NumberOfComponents="3" Name="Reactions" format="ascii">
22.573209 2.733058 .000000
.000000 .000000 .000000
.000000 .000000 .000000
-.000000 .000000 .000000
.000000 .000000 .000000
-.000000 -.000000 .000000
5.678935 .000000 .000000
-28.252144 -2.733058 .000000
.000000 -.000000 .000000
-.000000 -.000000 .000000
.000000 -.000000 .000000
.000000 .000000 .000000
-.000000 -.000000 .000000
      </DataArray>
    </PointData>
    <CellData>
    </CellData>
  </Piece>
  </UnstructuredGrid>
</VTKFile>
