<?xml version="1.0"?>
<VTKFile type="UnstructuredGrid">
  <UnstructuredGrid>
  <Piece NumberOfPoints="13"  NumberOfCells="23">
    <Points>
      <DataArray type="Float64" NumberOfComponents="3" format="ascii">
.000000 .000000 .000000
-1.706316 2.328780 .000000
-2.102570 5.227929 .000000
-2.085153 8.182936 .000000
-1.805685 11.152464 .000000
-1.421812 14.137017 .000000
-2.000000 13.184574 .000000
.000000 1.000000 .000000
-2.657836 2.071147 .000000
-3.097722 5.133269 .000000
-3.086643 8.201534 .000000
-2.805258 11.231775 .000000
-2.419342 14.224758 .000000
      </DataArray>
    </Points>
    <Cells>
      <DataArray type="Int32" Name="connectivity" format="ascii">
0 1
1 2
2 3
3 4
4 5
5 6
0 7
0 8
1 8
1 9
2 9
2 10
3 10
3 11
4 11
4 12
5 12
7 8
8 9
9 10
10 11
11 12
12 6
      </DataArray>
      <DataArray type="Int32" Name="offsets" format="ascii">
2
4
6
8
10
12
14
16
18
20
22
24
26
28
30
32
34
36
38
40
42
44
46
      </DataArray>
      <DataArray type="UInt8" Name="types" format="ascii">
4
4
4
4
4
4
4
4
4
4
4
4
4
4
4
4
4
4
4
4
4
4
4
      </DataArray>
    </Cells>
    <PointData>
      <DataArray type="Float64" NumberOfComponents="3" Name="Displacement" format="ascii">
.000000 .000000 .000000
-4.706316 2.328780 .000000
-8.102570 5.227929 .000000
-11.085153 8.182936 .000000
-13.805685 11.152464 .000000
-16.421812 14.137017 .000000
-18.000000 12.684574 .000000
.000000 .000000 .000000
-5.657836 1.071147 .000000
-9.097722 4.133269 .000000
-12.086643 7.201534 .000000
-14.805258 10.231775 .000000
-17.419342 13.224758 .000000
      </DataArray>
      <DataArray type="Float64" NumberOfComponents="3" Name="Reactions" format="ascii">
-35.868214 15.641795 .000000
-.000000 .000000 .000000
-.000000 -.000000 .000000
-.000000 .000000 .000000
-.000000 .000000 .000000
-.000000 -.000000 .000000
-2.943740 .000000 .000000
38.811953 -15.641795 .000000
.000000 .000000 .000000
.000000 -.000000 .000000
.000000 -.000000 .000000
.000000 .000000 .000000
.000000 -.000000 .000000
      </DataArray>
    </PointData>
    <CellData>
    </CellData>
  </Piece>
  </UnstructuredGrid>
</VTKFile>
