<?xml version="1.0"?>
<VTKFile type="UnstructuredGrid">
  <UnstructuredGrid>
  <Piece NumberOfPoints="13"  NumberOfCells="23">
    <Points>
      <DataArray type="Float64" NumberOfComponents="3" format="ascii">
.000000 .000000 .000000
-1.841908 2.250564 .000000
-2.670233 5.068411 .000000
-3.156227 7.989310 .000000
-3.422309 10.961836 .000000
-3.601884 13.963572 .000000
-4.000000 12.922003 .000000
.000000 1.000000 .000000
-2.757751 1.872039 .000000
-3.639307 4.821429 .000000
-4.146084 7.836739 .000000
-4.419551 10.860848 .000000
-4.598605 13.870140 .000000
      </DataArray>
    </Points>
    <Cells>
      <DataArray type="Int32" Name="connectivity" format="ascii">
0 1
1 2
2 3
3 4
4 5
5 6
0 7
0 8
1 8
1 9
2 9
2 10
3 10
3 11
4 11
4 12
5 12
7 8
8 9
9 10
10 11
11 12
12 6
      </DataArray>
      <DataArray type="Int32" Name="offsets" format="ascii">
2
4
6
8
10
12
14
16
18
20
22
24
26
28
30
32
34
36
38
40
42
44
46
      </DataArray>
      <DataArray type="UInt8" Name="types" format="ascii">
4
4
4
4
4
4
4
4
4
4
4
4
4
4
4
4
4
4
4
4
4
4
4
      </DataArray>
    </Cells>
    <PointData>
      <DataArray type="Float64" NumberOfComponents="3" Name="Displacement" format="ascii">
.000000 .000000 .000000
-4.841908 2.250564 .000000
-8.670233 5.068411 .000000
-12.156227 7.989310 .000000
-15.422309 10.961836 .000000
-18.601884 13.963572 .000000
-20.000000 12.422003 .000000
.000000 .000000 .000000
-5.757751 .872039 .000000
-9.639307 3.821429 .000000
-13.146084 6.836739 .000000
-16.419551 9.860848 .000000
-19.598605 12.870140 .000000
      </DataArray>
      <DataArray type="Float64" NumberOfComponents="3" Name="Reactions" format="ascii">
-29.889300 10.244185 .000000
-.000000 .000000 .000000
-.000000 -.000000 .000000
-.000000 .000000 .000000
-.000000 .000000 .000000
-.000000 -.000000 .000000
-2.507070 .000000 .000000
32.396370 -10.244185 .000000
.000000 .000000 .000000
.000000 -.000000 .000000
.000000 -.000000 .000000
.000000 .000000 .000000
.000000 -.000000 .000000
      </DataArray>
    </PointData>
    <CellData>
    </CellData>
  </Piece>
  </UnstructuredGrid>
</VTKFile>
