<?xml version="1.0"?>
<VTKFile type="UnstructuredGrid">
  <UnstructuredGrid>
  <Piece NumberOfPoints="13"  NumberOfCells="23">
    <Points>
      <DataArray type="Float64" NumberOfComponents="3" format="ascii">
.000000 .000000 .000000
3.075489 .760947 .000000
4.268827 3.638079 .000000
5.114412 6.593558 .000000
5.472873 9.602228 .000000
5.639040 12.580627 .000000
5.000000 11.654753 .000000
.000000 1.000000 .000000
2.729602 1.575944 .000000
3.392682 4.098152 .000000
4.158582 6.852570 .000000
4.489650 9.748188 .000000
4.650825 12.710396 .000000
      </DataArray>
    </Points>
    <Cells>
      <DataArray type="Int32" Name="connectivity" format="ascii">
0 1
1 2
2 3
3 4
4 5
5 6
0 7
0 8
1 8
1 9
2 9
2 10
3 10
3 11
4 11
4 12
5 12
7 8
8 9
9 10
10 11
11 12
12 6
      </DataArray>
      <DataArray type="Int32" Name="offsets" format="ascii">
2
4
6
8
10
12
14
16
18
20
22
24
26
28
30
32
34
36
38
40
42
44
46
      </DataArray>
      <DataArray type="UInt8" Name="types" format="ascii">
4
4
4
4
4
4
4
4
4
4
4
4
4
4
4
4
4
4
4
4
4
4
4
      </DataArray>
    </Cells>
    <PointData>
      <DataArray type="Float64" NumberOfComponents="3" Name="Displacement" format="ascii">
.000000 .000000 .000000
.075489 .760947 .000000
-1.731173 3.638079 .000000
-3.885588 6.593558 .000000
-6.527127 9.602228 .000000
-9.360960 12.580627 .000000
-11.000000 11.154753 .000000
.000000 .000000 .000000
-.270398 .575944 .000000
-2.607318 3.098152 .000000
-4.841418 5.852570 .000000
-7.510350 8.748188 .000000
-10.349175 11.710396 .000000
      </DataArray>
      <DataArray type="Float64" NumberOfComponents="3" Name="Reactions" format="ascii">
56.264792 12.986051 .000000
-.000000 .000000 .000000
-.000000 -.000000 .000000
-.000000 .000000 .000000
-.000000 .000000 .000000
-.000000 -.000000 .000000
5.280722 .000000 .000000
-61.545514 -12.986051 .000000
.000000 .000000 .000000
-.000000 -.000000 .000000
.000000 .000000 .000000
.000000 -.000000 .000000
.000000 -.000000 .000000
      </DataArray>
    </PointData>
    <CellData>
    </CellData>
  </Piece>
  </UnstructuredGrid>
</VTKFile>
