<?xml version="1.0"?>
<VTKFile type="UnstructuredGrid">
  <UnstructuredGrid>
  <Piece NumberOfPoints="13"  NumberOfCells="23">
    <Points>
      <DataArray type="Float64" NumberOfComponents="3" format="ascii">
.000000 .000000 .000000
3.022021 1.012039 .000000
4.970740 3.475830 .000000
6.022567 6.382999 .000000
6.468545 9.387234 .000000
6.672374 12.358590 .000000
6.000000 11.454293 .000000
.000000 1.000000 .000000
2.586198 1.850820 .000000
4.181038 4.047520 .000000
5.091484 6.708384 .000000
5.493287 9.569876 .000000
5.690019 12.520636 .000000
      </DataArray>
    </Points>
    <Cells>
      <DataArray type="Int32" Name="connectivity" format="ascii">
0 1
1 2
2 3
3 4
4 5
5 6
0 7
0 8
1 8
1 9
2 9
2 10
3 10
3 11
4 11
4 12
5 12
7 8
8 9
9 10
10 11
11 12
12 6
      </DataArray>
      <DataArray type="Int32" Name="offsets" format="ascii">
2
4
6
8
10
12
14
16
18
20
22
24
26
28
30
32
34
36
38
40
42
44
46
      </DataArray>
      <DataArray type="UInt8" Name="types" format="ascii">
4
4
4
4
4
4
4
4
4
4
4
4
4
4
4
4
4
4
4
4
4
4
4
      </DataArray>
    </Cells>
    <PointData>
      <DataArray type="Float64" NumberOfComponents="3" Name="Displacement" format="ascii">
.000000 .000000 .000000
.022021 1.012039 .000000
-1.029260 3.475830 .000000
-2.977433 6.382999 .000000
-5.531455 9.387234 .000000
-8.327626 12.358590 .000000
-10.000000 10.954293 .000000
.000000 .000000 .000000
-.413802 .850820 .000000
-1.818962 3.047520 .000000
-3.908516 5.708384 .000000
-6.506713 8.569876 .000000
-9.309981 11.520636 .000000
      </DataArray>
      <DataArray type="Float64" NumberOfComponents="3" Name="Reactions" format="ascii">
69.399961 25.015466 .000000
.000000 .000000 .000000
-.000000 -.000000 .000000
-.000000 .000000 .000000
-.000000 .000000 .000000
-.000000 -.000000 .000000
6.638417 .000000 .000000
-76.038378 -25.015466 .000000
.000000 .000000 .000000
-.000000 -.000000 .000000
.000000 -.000000 .000000
.000000 .000000 .000000
.000000 -.000000 .000000
      </DataArray>
    </PointData>
    <CellData>
    </CellData>
  </Piece>
  </UnstructuredGrid>
</VTKFile>
