<?xml version="1.0"?>
<VTKFile type="UnstructuredGrid">
  <UnstructuredGrid>
  <Piece NumberOfPoints="13"  NumberOfCells="23">
    <Points>
      <DataArray type="Float64" NumberOfComponents="3" format="ascii">
.000000 .000000 .000000
3.034629 .936537 .000000
5.198834 3.205479 .000000
6.519556 5.997003 .000000
7.258779 8.941067 .000000
7.756935 11.877259 .000000
7.000000 11.042361 .000000
.000000 1.000000 .000000
2.621841 1.799323 .000000
4.456412 3.839669 .000000
5.622150 6.407801 .000000
6.305736 9.217982 .000000
6.795126 12.134484 .000000
      </DataArray>
    </Points>
    <Cells>
      <DataArray type="Int32" Name="connectivity" format="ascii">
0 1
1 2
2 3
3 4
4 5
5 6
0 7
0 8
1 8
1 9
2 9
2 10
3 10
3 11
4 11
4 12
5 12
7 8
8 9
9 10
10 11
11 12
12 6
      </DataArray>
      <DataArray type="Int32" Name="offsets" format="ascii">
2
4
6
8
10
12
14
16
18
20
22
24
26
28
30
32
34
36
38
40
42
44
46
      </DataArray>
      <DataArray type="UInt8" Name="types" format="ascii">
4
4
4
4
4
4
4
4
4
4
4
4
4
4
4
4
4
4
4
4
4
4
4
      </DataArray>
    </Cells>
    <PointData>
      <DataArray type="Float64" NumberOfComponents="3" Name="Displacement" format="ascii">
.000000 .000000 .000000
.034629 .936537 .000000
-.801166 3.205479 .000000
-2.480444 5.997003 .000000
-4.741221 8.941067 .000000
-7.243065 11.877259 .000000
-9.000000 10.542361 .000000
.000000 .000000 .000000
-.378159 .799323 .000000
-1.543588 2.839669 .000000
-3.377850 5.407801 .000000
-5.694264 8.217982 .000000
-8.204874 11.134484 .000000
      </DataArray>
      <DataArray type="Float64" NumberOfComponents="3" Name="Reactions" format="ascii">
65.660950 22.011489 .000000
.000000 .000000 .000000
-.000000 -.000000 .000000
-.000000 .000000 .000000
.000000 .000000 .000000
-.000000 -.000000 .000000
6.538398 .000000 .000000
-72.199347 -22.011489 .000000
.000000 .000000 .000000
-.000000 -.000000 .000000
.000000 -.000000 .000000
.000000 .000000 .000000
.000000 -.000000 .000000
      </DataArray>
    </PointData>
    <CellData>
    </CellData>
  </Piece>
  </UnstructuredGrid>
</VTKFile>
