<?xml version="1.0"?>
<VTKFile type="UnstructuredGrid">
  <UnstructuredGrid>
  <Piece NumberOfPoints="13"  NumberOfCells="23">
    <Points>
      <DataArray type="Float64" NumberOfComponents="3" format="ascii">
.000000 .000000 .000000
2.040641 2.402164 .000000
3.556843 5.125085 .000000
4.295378 8.109925 .000000
4.546413 11.129885 .000000
4.605859 14.112447 .000000
4.000000 13.164588 .000000
.000000 1.000000 .000000
1.342792 3.094367 .000000
2.673600 5.556044 .000000
3.331221 8.335596 .000000
3.558672 11.240808 .000000
3.613634 14.207001 .000000
      </DataArray>
    </Points>
    <Cells>
      <DataArray type="Int32" Name="connectivity" format="ascii">
0 1
1 2
2 3
3 4
4 5
5 6
0 7
0 8
1 8
1 9
2 9
2 10
3 10
3 11
4 11
4 12
5 12
7 8
8 9
9 10
10 11
11 12
12 6
      </DataArray>
      <DataArray type="Int32" Name="offsets" format="ascii">
2
4
6
8
10
12
14
16
18
20
22
24
26
28
30
32
34
36
38
40
42
44
46
      </DataArray>
      <DataArray type="UInt8" Name="types" format="ascii">
4
4
4
4
4
4
4
4
4
4
4
4
4
4
4
4
4
4
4
4
4
4
4
      </DataArray>
    </Cells>
    <PointData>
      <DataArray type="Float64" NumberOfComponents="3" Name="Displacement" format="ascii">
.000000 .000000 .000000
-.959359 2.402164 .000000
-2.443157 5.125085 .000000
-4.704622 8.109925 .000000
-7.453587 11.129885 .000000
-10.394141 14.112447 .000000
-12.000000 12.664588 .000000
.000000 .000000 .000000
-1.657208 2.094367 .000000
-3.326400 4.556044 .000000
-5.668779 7.335596 .000000
-8.441328 10.240808 .000000
-11.386366 13.207001 .000000
      </DataArray>
      <DataArray type="Float64" NumberOfComponents="3" Name="Reactions" format="ascii">
64.579468 109.005446 .000000
.000000 .000000 .000000
.000000 -.000000 .000000
.000000 .000000 .000000
.000000 -.000000 .000000
.000000 .000000 .000000
5.308808 -.000000 .000000
-69.888276 -109.005446 .000000
.000000 -.000000 .000000
-.000000 -.000000 .000000
-.000000 .000000 .000000
-.000000 -.000000 .000000
-.000000 .000000 .000000
      </DataArray>
    </PointData>
    <CellData>
    </CellData>
  </Piece>
  </UnstructuredGrid>
</VTKFile>
