<?xml version="1.0"?>
<VTKFile type="UnstructuredGrid">
  <UnstructuredGrid>
  <Piece NumberOfPoints="13"  NumberOfCells="23">
    <Points>
      <DataArray type="Float64" NumberOfComponents="3" format="ascii">
.000000 .000000 .000000
-1.774570 2.290599 .000000
-2.388955 5.156805 .000000
-2.622976 8.105385 .000000
-2.614163 11.088798 .000000
-2.509138 14.095089 .000000
-3.000000 13.094361 .000000
.000000 1.000000 .000000
-2.710194 1.971575 .000000
-3.374017 4.985489 .000000
-3.622355 8.038560 .000000
-3.616650 11.078562 .000000
-3.510373 14.092927 .000000
      </DataArray>
    </Points>
    <Cells>
      <DataArray type="Int32" Name="connectivity" format="ascii">
0 1
1 2
2 3
3 4
4 5
5 6
0 7
0 8
1 8
1 9
2 9
2 10
3 10
3 11
4 11
4 12
5 12
7 8
8 9
9 10
10 11
11 12
12 6
      </DataArray>
      <DataArray type="Int32" Name="offsets" format="ascii">
2
4
6
8
10
12
14
16
18
20
22
24
26
28
30
32
34
36
38
40
42
44
46
      </DataArray>
      <DataArray type="UInt8" Name="types" format="ascii">
4
4
4
4
4
4
4
4
4
4
4
4
4
4
4
4
4
4
4
4
4
4
4
      </DataArray>
    </Cells>
    <PointData>
      <DataArray type="Float64" NumberOfComponents="3" Name="Displacement" format="ascii">
.000000 .000000 .000000
-4.774570 2.290599 .000000
-8.388955 5.156805 .000000
-11.622976 8.105385 .000000
-14.614163 11.088798 .000000
-17.509138 14.095089 .000000
-19.000000 12.594361 .000000
.000000 .000000 .000000
-5.710194 .971575 .000000
-9.374017 3.985489 .000000
-12.622355 7.038560 .000000
-15.616650 10.078562 .000000
-18.510373 13.092927 .000000
      </DataArray>
      <DataArray type="Float64" NumberOfComponents="3" Name="Reactions" format="ascii">
-32.953928 12.790409 .000000
-.000000 .000000 .000000
-.000000 -.000000 .000000
-.000000 .000000 .000000
-.000000 .000000 .000000
-.000000 -.000000 .000000
-2.724735 .000000 .000000
35.678663 -12.790409 .000000
.000000 .000000 .000000
.000000 -.000000 .000000
.000000 -.000000 .000000
.000000 .000000 .000000
.000000 -.000000 .000000
      </DataArray>
    </PointData>
    <CellData>
    </CellData>
  </Piece>
  </UnstructuredGrid>
</VTKFile>
