<?xml version="1.0"?>
<VTKFile type="UnstructuredGrid">
  <UnstructuredGrid>
  <Piece NumberOfPoints="13"  NumberOfCells="23">
    <Points>
      <DataArray type="Float64" NumberOfComponents="3" format="ascii">
.000000 .000000 .000000
3.060647 .435738 .000000
5.924972 1.551460 .000000
8.517137 3.155335 .000000
10.872782 5.040127 .000000
13.103704 7.019108 .000000
12.000000 6.799563 .000000
.000000 1.000000 .000000
2.843409 1.401812 .000000
5.521656 2.457767 .000000
7.983275 3.994083 .000000
10.269182 5.832135 .000000
12.488679 7.803363 .000000
      </DataArray>
    </Points>
    <Cells>
      <DataArray type="Int32" Name="connectivity" format="ascii">
0 1
1 2
2 3
3 4
4 5
5 6
0 7
0 8
1 8
1 9
2 9
2 10
3 10
3 11
4 11
4 12
5 12
7 8
8 9
9 10
10 11
11 12
12 6
      </DataArray>
      <DataArray type="Int32" Name="offsets" format="ascii">
2
4
6
8
10
12
14
16
18
20
22
24
26
28
30
32
34
36
38
40
42
44
46
      </DataArray>
      <DataArray type="UInt8" Name="types" format="ascii">
4
4
4
4
4
4
4
4
4
4
4
4
4
4
4
4
4
4
4
4
4
4
4
      </DataArray>
    </Cells>
    <PointData>
      <DataArray type="Float64" NumberOfComponents="3" Name="Displacement" format="ascii">
.000000 .000000 .000000
.060647 .435738 .000000
-.075028 1.551460 .000000
-.482863 3.155335 .000000
-1.127218 5.040127 .000000
-1.896296 7.019108 .000000
-4.000000 6.299563 .000000
.000000 .000000 .000000
-.156591 .401812 .000000
-.478344 1.457767 .000000
-1.016725 2.994083 .000000
-1.730818 4.832135 .000000
-2.511321 6.803363 .000000
      </DataArray>
      <DataArray type="Float64" NumberOfComponents="3" Name="Reactions" format="ascii">
33.844341 5.607315 .000000
.000000 -.000000 .000000
-.000000 .000000 .000000
-.000000 -.000000 .000000
.000000 .000000 .000000
-.000000 .000000 .000000
5.835671 .000000 .000000
-39.680011 -5.607315 .000000
-.000000 -.000000 .000000
.000000 .000000 .000000
-.000000 -.000000 .000000
.000000 .000000 .000000
-.000000 -.000000 .000000
      </DataArray>
    </PointData>
    <CellData>
    </CellData>
  </Piece>
  </UnstructuredGrid>
</VTKFile>
