<?xml version="1.0"?>
<VTKFile type="UnstructuredGrid">
  <UnstructuredGrid>
  <Piece NumberOfPoints="13"  NumberOfCells="23">
    <Points>
      <DataArray type="Float64" NumberOfComponents="3" format="ascii">
.000000 .000000 .000000
3.000566 -.001241 .000000
6.001132 -.002032 .000000
9.001698 -.002378 .000000
12.002263 -.002281 .000000
14.998915 -.154030 .000000
15.000000 .422242 .000000
.000000 1.000000 .000000
3.000415 .998759 .000000
6.000831 .997968 .000000
9.001248 .997622 .000000
12.001665 .997718 .000000
15.002082 .998522 .000000
      </DataArray>
    </Points>
    <Cells>
      <DataArray type="Int32" Name="connectivity" format="ascii">
0 1
1 2
2 3
3 4
4 5
5 6
0 7
0 8
1 8
1 9
2 9
2 10
3 10
3 11
4 11
4 12
5 12
7 8
8 9
9 10
10 11
11 12
12 6
      </DataArray>
      <DataArray type="Int32" Name="offsets" format="ascii">
2
4
6
8
10
12
14
16
18
20
22
24
26
28
30
32
34
36
38
40
42
44
46
      </DataArray>
      <DataArray type="UInt8" Name="types" format="ascii">
4
4
4
4
4
4
4
4
4
4
4
4
4
4
4
4
4
4
4
4
4
4
4
      </DataArray>
    </Cells>
    <PointData>
      <DataArray type="Float64" NumberOfComponents="3" Name="Displacement" format="ascii">
.000000 .000000 .000000
.000566 -.001241 .000000
.001132 -.002032 .000000
.001698 -.002378 .000000
.002263 -.002281 .000000
-.001085 -.154030 .000000
-1.000000 -.077758 .000000
.000000 .000000 .000000
.000415 -.001241 .000000
.000831 -.002032 .000000
.001248 -.002378 .000000
.001665 -.002282 .000000
.002082 -.001478 .000000
      </DataArray>
      <DataArray type="Float64" NumberOfComponents="3" Name="Reactions" format="ascii">
.189336 .000057 .000000
.000000 -.000000 .000000
.000000 .000000 .000000
-.000000 .000000 .000000
.000000 .000000 .000000
-.000000 -.000000 .000000
-.327709 .000000 .000000
.138372 -.000057 .000000
-.000000 .000000 .000000
.000000 -.000000 .000000
-.000000 -.000000 .000000
.000000 -.000000 .000000
-.000000 -.000000 .000000
      </DataArray>
    </PointData>
    <CellData>
    </CellData>
  </Piece>
  </UnstructuredGrid>
</VTKFile>
