<?xml version="1.0"?>
<VTKFile type="UnstructuredGrid">
  <UnstructuredGrid>
  <Piece NumberOfPoints="13"  NumberOfCells="23">
    <Points>
      <DataArray type="Float64" NumberOfComponents="3" format="ascii">
.000000 .000000 .000000
2.999643 .001095 .000000
5.999285 .002210 .000000
8.998927 .003339 .000000
11.998567 .004479 .000000
14.998207 .005563 .000000
15.998014 .505613 .000000
.000000 1.000000 .000000
2.999636 1.001095 .000000
5.999272 1.002210 .000000
8.998909 1.003339 .000000
11.998548 1.004478 .000000
14.998186 1.005623 .000000
      </DataArray>
    </Points>
    <Cells>
      <DataArray type="Int32" Name="connectivity" format="ascii">
0 1
1 2
2 3
3 4
4 5
5 6
0 7
0 8
1 8
1 9
2 9
2 10
3 10
3 11
4 11
4 12
5 12
7 8
8 9
9 10
10 11
11 12
12 6
      </DataArray>
      <DataArray type="Int32" Name="offsets" format="ascii">
2
4
6
8
10
12
14
16
18
20
22
24
26
28
30
32
34
36
38
40
42
44
46
      </DataArray>
      <DataArray type="UInt8" Name="types" format="ascii">
4
4
4
4
4
4
4
4
4
4
4
4
4
4
4
4
4
4
4
4
4
4
4
      </DataArray>
    </Cells>
    <PointData>
      <DataArray type="Float64" NumberOfComponents="3" Name="Displacement" format="ascii">
.000000 .000000 .000000
-.000357 .001095 .000000
-.000715 .002210 .000000
-.001073 .003339 .000000
-.001433 .004479 .000000
-.001793 .005563 .000000
-.001986 .005613 .000000
.000000 .000000 .000000
-.000364 .001095 .000000
-.000728 .002210 .000000
-.001091 .003339 .000000
-.001452 .004478 .000000
-.001814 .005623 .000000
      </DataArray>
      <DataArray type="Float64" NumberOfComponents="3" Name="Reactions" format="ascii">
-.118653 .000044 .000000
.000000 -.000000 .000000
-.000000 .000000 .000000
.000000 -.000000 .000000
-.000000 -.000000 .000000
.000000 .000000 .000000
.240000 .000000 .000000
-.121347 -.000044 .000000
-.000000 .000000 .000000
.000000 -.000000 .000000
-.000000 .000000 .000000
.000000 .000000 .000000
.000000 -.000000 .000000
      </DataArray>
    </PointData>
    <CellData>
    </CellData>
  </Piece>
  </UnstructuredGrid>
</VTKFile>
