<?xml version="1.0"?>
<VTKFile type="UnstructuredGrid">
  <UnstructuredGrid>
  <Piece NumberOfPoints="13"  NumberOfCells="23">
    <Points>
      <DataArray type="Float64" NumberOfComponents="3" format="ascii">
.000000 .000000 .000000
2.997001 .013366 .000000
5.993858 .030656 .000000
8.990546 .051103 .000000
11.987055 .073795 .000000
14.983388 .097105 .000000
15.979448 .601618 .000000
.000000 1.000000 .000000
2.995629 1.013352 .000000
5.991335 1.030638 .000000
8.987146 1.051079 .000000
11.983088 1.073768 .000000
14.979185 1.097688 .000000
      </DataArray>
    </Points>
    <Cells>
      <DataArray type="Int32" Name="connectivity" format="ascii">
0 1
1 2
2 3
3 4
4 5
5 6
0 7
0 8
1 8
1 9
2 9
2 10
3 10
3 11
4 11
4 12
5 12
7 8
8 9
9 10
10 11
11 12
12 6
      </DataArray>
      <DataArray type="Int32" Name="offsets" format="ascii">
2
4
6
8
10
12
14
16
18
20
22
24
26
28
30
32
34
36
38
40
42
44
46
      </DataArray>
      <DataArray type="UInt8" Name="types" format="ascii">
4
4
4
4
4
4
4
4
4
4
4
4
4
4
4
4
4
4
4
4
4
4
4
      </DataArray>
    </Cells>
    <PointData>
      <DataArray type="Float64" NumberOfComponents="3" Name="Displacement" format="ascii">
.000000 .000000 .000000
-.002999 .013366 .000000
-.006142 .030656 .000000
-.009454 .051103 .000000
-.012945 .073795 .000000
-.016612 .097105 .000000
-.020552 .101618 .000000
.000000 .000000 .000000
-.004371 .013352 .000000
-.008665 .030638 .000000
-.012854 .051079 .000000
-.016912 .073768 .000000
-.020815 .097688 .000000
      </DataArray>
      <DataArray type="Float64" NumberOfComponents="3" Name="Reactions" format="ascii">
-.956117 .006436 .000000
.000000 .000000 .000000
.000000 .000000 .000000
.000000 .000000 .000000
.000000 .000000 .000000
.000000 .000000 .000000
2.400000 .000000 .000000
-1.443883 -.006436 .000000
.000000 -.000000 .000000
.000000 -.000000 .000000
-.000000 -.000000 .000000
-.000000 -.000000 .000000
-.000000 -.000000 .000000
      </DataArray>
    </PointData>
    <CellData>
    </CellData>
  </Piece>
  </UnstructuredGrid>
</VTKFile>
