<?xml version="1.0"?>
<VTKFile type="UnstructuredGrid">
  <UnstructuredGrid>
  <Piece NumberOfPoints="13"  NumberOfCells="23">
    <Points>
      <DataArray type="Float64" NumberOfComponents="3" format="ascii">
.000000 .000000 .000000
2.998847 .034542 .000000
5.996448 .099327 .000000
8.992348 .189634 .000000
11.986353 .298900 .000000
14.978591 .418138 .000000
15.958547 .951678 .000000
.000000 1.000000 .000000
2.988777 1.034412 .000000
5.977455 1.099036 .000000
8.966227 1.189159 .000000
11.955417 1.298272 .000000
14.945452 1.418476 .000000
      </DataArray>
    </Points>
    <Cells>
      <DataArray type="Int32" Name="connectivity" format="ascii">
0 1
1 2
2 3
3 4
4 5
5 6
0 7
0 8
1 8
1 9
2 9
2 10
3 10
3 11
4 11
4 12
5 12
7 8
8 9
9 10
10 11
11 12
12 6
      </DataArray>
      <DataArray type="Int32" Name="offsets" format="ascii">
2
4
6
8
10
12
14
16
18
20
22
24
26
28
30
32
34
36
38
40
42
44
46
      </DataArray>
      <DataArray type="UInt8" Name="types" format="ascii">
4
4
4
4
4
4
4
4
4
4
4
4
4
4
4
4
4
4
4
4
4
4
4
      </DataArray>
    </Cells>
    <PointData>
      <DataArray type="Float64" NumberOfComponents="3" Name="Displacement" format="ascii">
.000000 .000000 .000000
-.001153 .034542 .000000
-.003552 .099327 .000000
-.007652 .189634 .000000
-.013647 .298900 .000000
-.021409 .418138 .000000
-.041453 .451678 .000000
.000000 .000000 .000000
-.011223 .034412 .000000
-.022545 .099036 .000000
-.033773 .189159 .000000
-.044583 .298272 .000000
-.054548 .418476 .000000
      </DataArray>
      <DataArray type="Float64" NumberOfComponents="3" Name="Reactions" format="ascii">
-.185556 .042076 .000000
.000000 .000000 .000000
-.000000 .000000 .000000
.000000 .000000 .000000
-.000000 .000000 .000000
-.000000 -.000000 .000000
3.840000 .000000 .000000
-3.654444 -.042076 .000000
.000000 .000000 .000000
-.000000 -.000000 .000000
-.000000 -.000000 .000000
.000000 -.000000 .000000
-.000000 .000000 .000000
      </DataArray>
    </PointData>
    <CellData>
    </CellData>
  </Piece>
  </UnstructuredGrid>
</VTKFile>
