<?xml version="1.0"?>
<VTKFile type="UnstructuredGrid">
  <UnstructuredGrid>
  <Piece NumberOfPoints="13"  NumberOfCells="23">
    <Points>
      <DataArray type="Float64" NumberOfComponents="3" format="ascii">
.000000 .000000 .000000
2.996845 .020135 .000000
5.993324 .050223 .000000
8.989350 .088507 .000000
11.984878 .132752 .000000
14.979923 .179555 .000000
15.972098 .690744 .000000
.000000 1.000000 .000000
2.993446 1.020101 .000000
5.986998 1.050166 .000000
8.980740 1.088427 .000000
11.974760 1.132653 .000000
14.969145 1.180254 .000000
      </DataArray>
    </Points>
    <Cells>
      <DataArray type="Int32" Name="connectivity" format="ascii">
0 1
1 2
2 3
3 4
4 5
5 6
0 7
0 8
1 8
1 9
2 9
2 10
3 10
3 11
4 11
4 12
5 12
7 8
8 9
9 10
10 11
11 12
12 6
      </DataArray>
      <DataArray type="Int32" Name="offsets" format="ascii">
2
4
6
8
10
12
14
16
18
20
22
24
26
28
30
32
34
36
38
40
42
44
46
      </DataArray>
      <DataArray type="UInt8" Name="types" format="ascii">
4
4
4
4
4
4
4
4
4
4
4
4
4
4
4
4
4
4
4
4
4
4
4
      </DataArray>
    </Cells>
    <PointData>
      <DataArray type="Float64" NumberOfComponents="3" Name="Displacement" format="ascii">
.000000 .000000 .000000
-.003155 .020135 .000000
-.006676 .050223 .000000
-.010650 .088507 .000000
-.015122 .132752 .000000
-.020077 .179555 .000000
-.027902 .190744 .000000
.000000 .000000 .000000
-.006554 .020101 .000000
-.013002 .050166 .000000
-.019260 .088427 .000000
-.025240 .132653 .000000
-.030855 .180254 .000000
      </DataArray>
      <DataArray type="Float64" NumberOfComponents="3" Name="Reactions" format="ascii">
-.964880 .014472 .000000
-.000000 -.000000 .000000
.000000 -.000000 .000000
-.000000 -.000000 .000000
-.000000 -.000000 .000000
.000000 -.000000 .000000
3.120000 -.000000 .000000
-2.155120 -.014472 .000000
.000000 .000000 .000000
.000000 .000000 .000000
-.000000 -.000000 .000000
.000000 .000000 .000000
-.000000 .000000 .000000
      </DataArray>
    </PointData>
    <CellData>
    </CellData>
  </Piece>
  </UnstructuredGrid>
</VTKFile>
