<?xml version="1.0"?>
<VTKFile type="UnstructuredGrid">
  <UnstructuredGrid>
  <Piece NumberOfPoints="13"  NumberOfCells="23">
    <Points>
      <DataArray type="Float64" NumberOfComponents="3" format="ascii">
.000000 .000000 .000000
3.042914 .933993 .000000
5.183276 3.242295 .000000
6.390808 6.105432 .000000
6.885927 9.128121 .000000
6.979389 12.142517 .000000
6.541902 13.178598 .000000
.000000 1.000000 .000000
2.622377 1.790668 .000000
4.422760 3.850591 .000000
5.469466 6.452924 .000000
5.907781 9.289391 .000000
5.984726 12.217592 .000000
      </DataArray>
    </Points>
    <Cells>
      <DataArray type="Int32" Name="connectivity" format="ascii">
0 1
1 2
2 3
3 4
4 5
5 6
0 7
0 8
1 8
1 9
2 9
2 10
3 10
3 11
4 11
4 12
5 12
7 8
8 9
9 10
10 11
11 12
12 6
      </DataArray>
      <DataArray type="Int32" Name="offsets" format="ascii">
2
4
6
8
10
12
14
16
18
20
22
24
26
28
30
32
34
36
38
40
42
44
46
      </DataArray>
      <DataArray type="UInt8" Name="types" format="ascii">
4
4
4
4
4
4
4
4
4
4
4
4
4
4
4
4
4
4
4
4
4
4
4
      </DataArray>
    </Cells>
    <PointData>
      <DataArray type="Float64" NumberOfComponents="3" Name="Displacement" format="ascii">
.000000 .000000 .000000
.042914 .933993 .000000
-.816724 3.242295 .000000
-2.609192 6.105432 .000000
-5.114073 9.128121 .000000
-8.020611 12.142517 .000000
-9.458098 12.678598 .000000
.000000 .000000 .000000
-.377623 .790668 .000000
-1.577240 2.850591 .000000
-3.530534 5.452924 .000000
-6.092219 8.289391 .000000
-9.015274 11.217592 .000000
      </DataArray>
      <DataArray type="Float64" NumberOfComponents="3" Name="Reactions" format="ascii">
67.225863 21.933469 .000000
.000000 .000000 .000000
-.000000 .000000 .000000
-.000000 -.000000 .000000
-.000000 .000000 .000000
.000000 -.000000 .000000
5.520000 .000000 .000000
-72.745863 -21.933469 .000000
.000000 .000000 .000000
-.000000 -.000000 .000000
-.000000 -.000000 .000000
.000000 .000000 .000000
-.000000 -.000000 .000000
      </DataArray>
    </PointData>
    <CellData>
    </CellData>
  </Piece>
  </UnstructuredGrid>
</VTKFile>
