<?xml version="1.0"?>
<VTKFile type="UnstructuredGrid">
  <UnstructuredGrid>
  <Piece NumberOfPoints="13"  NumberOfCells="23">
    <Points>
      <DataArray type="Float64" NumberOfComponents="3" format="ascii">
.000000 .000000 .000000
2.998618 .004596 .000000
5.997220 .009568 .000000
8.995807 .014830 .000000
11.994378 .020289 .000000
14.992933 .025608 .000000
15.992004 .526124 .000000
.000000 1.000000 .000000
2.998480 1.004595 .000000
5.996973 1.009567 .000000
8.995479 1.014828 .000000
11.994001 1.020288 .000000
14.992538 1.025847 .000000
      </DataArray>
    </Points>
    <Cells>
      <DataArray type="Int32" Name="connectivity" format="ascii">
0 1
1 2
2 3
3 4
4 5
5 6
0 7
0 8
1 8
1 9
2 9
2 10
3 10
3 11
4 11
4 12
5 12
7 8
8 9
9 10
10 11
11 12
12 6
      </DataArray>
      <DataArray type="Int32" Name="offsets" format="ascii">
2
4
6
8
10
12
14
16
18
20
22
24
26
28
30
32
34
36
38
40
42
44
46
      </DataArray>
      <DataArray type="UInt8" Name="types" format="ascii">
4
4
4
4
4
4
4
4
4
4
4
4
4
4
4
4
4
4
4
4
4
4
4
      </DataArray>
    </Cells>
    <PointData>
      <DataArray type="Float64" NumberOfComponents="3" Name="Displacement" format="ascii">
.000000 .000000 .000000
-.001382 .004596 .000000
-.002780 .009568 .000000
-.004193 .014830 .000000
-.005622 .020289 .000000
-.007067 .025608 .000000
-.007996 .026124 .000000
.000000 .000000 .000000
-.001520 .004595 .000000
-.003027 .009567 .000000
-.004521 .014828 .000000
-.005999 .020288 .000000
-.007462 .025847 .000000
      </DataArray>
      <DataArray type="Float64" NumberOfComponents="3" Name="Reactions" format="ascii">
-.454921 .000774 .000000
-.000000 .000000 .000000
.000000 .000000 .000000
.000000 -.000000 .000000
-.000000 .000000 .000000
.000000 .000000 .000000
.960000 .000000 .000000
-.505079 -.000774 .000000
.000000 -.000000 .000000
.000000 .000000 .000000
-.000000 .000000 .000000
-.000000 -.000000 .000000
.000000 -.000000 .000000
      </DataArray>
    </PointData>
    <CellData>
    </CellData>
  </Piece>
  </UnstructuredGrid>
</VTKFile>
