<?xml version="1.0"?>
<VTKFile type="UnstructuredGrid">
  <UnstructuredGrid>
  <Piece NumberOfPoints="13"  NumberOfCells="23">
    <Points>
      <DataArray type="Float64" NumberOfComponents="3" format="ascii">
.000000 .000000 .000000
2.997435 .010039 .000000
5.994792 .022132 .000000
8.992063 .035853 .000000
11.989242 .050715 .000000
14.986333 .065701 .000000
15.983774 .568131 .000000
.000000 1.000000 .000000
2.996705 1.010031 .000000
5.993461 1.022123 .000000
8.990280 1.035842 .000000
11.987172 1.050703 .000000
14.984148 1.066175 .000000
      </DataArray>
    </Points>
    <Cells>
      <DataArray type="Int32" Name="connectivity" format="ascii">
0 1
1 2
2 3
3 4
4 5
5 6
0 7
0 8
1 8
1 9
2 9
2 10
3 10
3 11
4 11
4 12
5 12
7 8
8 9
9 10
10 11
11 12
12 6
      </DataArray>
      <DataArray type="Int32" Name="offsets" format="ascii">
2
4
6
8
10
12
14
16
18
20
22
24
26
28
30
32
34
36
38
40
42
44
46
      </DataArray>
      <DataArray type="UInt8" Name="types" format="ascii">
4
4
4
4
4
4
4
4
4
4
4
4
4
4
4
4
4
4
4
4
4
4
4
      </DataArray>
    </Cells>
    <PointData>
      <DataArray type="Float64" NumberOfComponents="3" Name="Displacement" format="ascii">
.000000 .000000 .000000
-.002565 .010039 .000000
-.005208 .022132 .000000
-.007937 .035853 .000000
-.010758 .050715 .000000
-.013667 .065701 .000000
-.016226 .068131 .000000
.000000 .000000 .000000
-.003295 .010031 .000000
-.006539 .022123 .000000
-.009720 .035842 .000000
-.012828 .050703 .000000
-.015852 .066175 .000000
      </DataArray>
      <DataArray type="Float64" NumberOfComponents="3" Name="Reactions" format="ascii">
-.829188 .003651 .000000
.000000 .000000 .000000
.000000 .000000 .000000
.000000 .000000 .000000
.000000 .000000 .000000
.000000 .000000 .000000
1.920000 -.000000 .000000
-1.090812 -.003651 .000000
-.000000 -.000000 .000000
.000000 -.000000 .000000
-.000000 -.000000 .000000
-.000000 -.000000 .000000
-.000000 -.000000 .000000
      </DataArray>
    </PointData>
    <CellData>
    </CellData>
  </Piece>
  </UnstructuredGrid>
</VTKFile>
