<?xml version="1.0"?>
<VTKFile type="UnstructuredGrid">
  <UnstructuredGrid>
  <Piece NumberOfPoints="13"  NumberOfCells="23">
    <Points>
      <DataArray type="Float64" NumberOfComponents="3" format="ascii">
.000000 .000000 .000000
2.999293 .002223 .000000
5.998582 .004529 .000000
8.997868 .006898 .000000
11.997150 .009309 .000000
14.996429 .011621 .000000
15.996020 .511768 .000000
.000000 1.000000 .000000
2.999262 1.002223 .000000
5.998527 1.004529 .000000
8.997795 1.006897 .000000
11.997067 1.009309 .000000
14.996342 1.011741 .000000
      </DataArray>
    </Points>
    <Cells>
      <DataArray type="Int32" Name="connectivity" format="ascii">
0 1
1 2
2 3
3 4
4 5
5 6
0 7
0 8
1 8
1 9
2 9
2 10
3 10
3 11
4 11
4 12
5 12
7 8
8 9
9 10
10 11
11 12
12 6
      </DataArray>
      <DataArray type="Int32" Name="offsets" format="ascii">
2
4
6
8
10
12
14
16
18
20
22
24
26
28
30
32
34
36
38
40
42
44
46
      </DataArray>
      <DataArray type="UInt8" Name="types" format="ascii">
4
4
4
4
4
4
4
4
4
4
4
4
4
4
4
4
4
4
4
4
4
4
4
      </DataArray>
    </Cells>
    <PointData>
      <DataArray type="Float64" NumberOfComponents="3" Name="Displacement" format="ascii">
.000000 .000000 .000000
-.000707 .002223 .000000
-.001418 .004529 .000000
-.002132 .006898 .000000
-.002850 .009309 .000000
-.003571 .011621 .000000
-.003980 .011768 .000000
.000000 .000000 .000000
-.000738 .002223 .000000
-.001473 .004529 .000000
-.002205 .006897 .000000
-.002933 .009309 .000000
-.003658 .011741 .000000
      </DataArray>
      <DataArray type="Float64" NumberOfComponents="3" Name="Reactions" format="ascii">
-.234352 .000182 .000000
-.000000 .000000 .000000
.000000 -.000000 .000000
-.000000 -.000000 .000000
.000000 .000000 .000000
-.000000 -.000000 .000000
.480000 .000000 .000000
-.245648 -.000182 .000000
.000000 -.000000 .000000
.000000 .000000 .000000
-.000000 .000000 .000000
.000000 .000000 .000000
-.000000 -.000000 .000000
      </DataArray>
    </PointData>
    <CellData>
    </CellData>
  </Piece>
  </UnstructuredGrid>
</VTKFile>
