<?xml version="1.0"?>
<VTKFile type="UnstructuredGrid">
  <UnstructuredGrid>
  <Piece NumberOfPoints="13"  NumberOfCells="23">
    <Points>
      <DataArray type="Float64" NumberOfComponents="3" format="ascii">
.000000 .000000 .000000
2.997642 .027832 .000000
5.994516 .075563 .000000
8.990383 .139951 .000000
11.985128 .216628 .000000
14.978807 .299426 .000000
15.964969 .821596 .000000
.000000 1.000000 .000000
2.990958 1.027757 .000000
5.981968 1.075412 .000000
8.973186 1.139716 .000000
11.964815 1.216324 .000000
14.957088 1.300043 .000000
      </DataArray>
    </Points>
    <Cells>
      <DataArray type="Int32" Name="connectivity" format="ascii">
0 1
1 2
2 3
3 4
4 5
5 6
0 7
0 8
1 8
1 9
2 9
2 10
3 10
3 11
4 11
4 12
5 12
7 8
8 9
9 10
10 11
11 12
12 6
      </DataArray>
      <DataArray type="Int32" Name="offsets" format="ascii">
2
4
6
8
10
12
14
16
18
20
22
24
26
28
30
32
34
36
38
40
42
44
46
      </DataArray>
      <DataArray type="UInt8" Name="types" format="ascii">
4
4
4
4
4
4
4
4
4
4
4
4
4
4
4
4
4
4
4
4
4
4
4
      </DataArray>
    </Cells>
    <PointData>
      <DataArray type="Float64" NumberOfComponents="3" Name="Displacement" format="ascii">
.000000 .000000 .000000
-.002358 .027832 .000000
-.005484 .075563 .000000
-.009617 .139951 .000000
-.014872 .216628 .000000
-.021193 .299426 .000000
-.035031 .321596 .000000
.000000 .000000 .000000
-.009042 .027757 .000000
-.018032 .075412 .000000
-.026814 .139716 .000000
-.035185 .216324 .000000
-.042912 .300043 .000000
      </DataArray>
      <DataArray type="Float64" NumberOfComponents="3" Name="Reactions" format="ascii">
-.642256 .027449 .000000
.000000 .000000 .000000
.000000 .000000 .000000
.000000 .000000 .000000
.000000 .000000 .000000
-.000000 .000000 .000000
3.600000 -.000000 .000000
-2.957744 -.027449 .000000
.000000 -.000000 .000000
.000000 -.000000 .000000
-.000000 -.000000 .000000
-.000000 -.000000 .000000
-.000000 -.000000 .000000
      </DataArray>
    </PointData>
    <CellData>
    </CellData>
  </Piece>
  </UnstructuredGrid>
</VTKFile>
