<?xml version="1.0"?>
<VTKFile type="UnstructuredGrid">
  <UnstructuredGrid>
  <Piece NumberOfPoints="13"  NumberOfCells="23">
    <Points>
      <DataArray type="Float64" NumberOfComponents="3" format="ascii">
.000000 .000000 .000000
3.069054 .488976 .000000
5.888406 1.757426 .000000
8.346986 3.592384 .000000
10.463390 5.773061 .000000
12.350503 8.113232 .000000
12.617248 9.201673 .000000
.000000 1.000000 .000000
2.820754 1.444747 .000000
5.424530 2.631751 .000000
7.727135 4.367667 .000000
9.749478 6.466067 .000000
11.594576 8.766361 .000000
      </DataArray>
    </Points>
    <Cells>
      <DataArray type="Int32" Name="connectivity" format="ascii">
0 1
1 2
2 3
3 4
4 5
5 6
0 7
0 8
1 8
1 9
2 9
2 10
3 10
3 11
4 11
4 12
5 12
7 8
8 9
9 10
10 11
11 12
12 6
      </DataArray>
      <DataArray type="Int32" Name="offsets" format="ascii">
2
4
6
8
10
12
14
16
18
20
22
24
26
28
30
32
34
36
38
40
42
44
46
      </DataArray>
      <DataArray type="UInt8" Name="types" format="ascii">
4
4
4
4
4
4
4
4
4
4
4
4
4
4
4
4
4
4
4
4
4
4
4
      </DataArray>
    </Cells>
    <PointData>
      <DataArray type="Float64" NumberOfComponents="3" Name="Displacement" format="ascii">
.000000 .000000 .000000
.069054 .488976 .000000
-.111594 1.757426 .000000
-.653014 3.592384 .000000
-1.536610 5.773061 .000000
-2.649497 8.113232 .000000
-3.382752 8.701673 .000000
.000000 .000000 .000000
-.179246 .444747 .000000
-.575470 1.631751 .000000
-1.272865 3.367667 .000000
-2.250522 5.466067 .000000
-3.405424 7.766361 .000000
      </DataArray>
      <DataArray type="Float64" NumberOfComponents="3" Name="Reactions" format="ascii">
39.368032 6.963949 .000000
.000000 .000000 .000000
.000000 .000000 .000000
.000000 .000000 .000000
-.000000 .000000 .000000
-.000000 .000000 .000000
4.800000 -.000000 .000000
-44.168032 -6.963949 .000000
.000000 -.000000 .000000
.000000 -.000000 .000000
.000000 -.000000 .000000
.000000 -.000000 .000000
.000000 -.000000 .000000
      </DataArray>
    </PointData>
    <CellData>
    </CellData>
  </Piece>
  </UnstructuredGrid>
</VTKFile>
