<?xml version="1.0"?>
<VTKFile type="UnstructuredGrid">
  <UnstructuredGrid>
  <Piece NumberOfPoints="13"  NumberOfCells="23">
    <Points>
      <DataArray type="Float64" NumberOfComponents="3" format="ascii">
.000000 .000000 .000000
2.635688 1.520424 .000000
-.203864 .640183 .000000
-3.107959 -.053878 .000000
-6.049223 -.626044 .000000
-9.011620 -1.133509 .000000
-9.907126 -1.806731 .000000
.000000 1.000000 .000000
3.004797 .592558 .000000
.085064 -.318020 .000000
-2.874301 -1.027174 .000000
-5.849416 -1.606881 .000000
-8.827327 -2.115416 .000000
      </DataArray>
    </Points>
    <Cells>
      <DataArray type="Int32" Name="connectivity" format="ascii">
0 1
1 2
2 3
3 4
4 5
5 6
0 7
0 8
1 8
1 9
2 9
2 10
3 10
3 11
4 11
4 12
5 12
7 8
8 9
9 10
10 11
11 12
12 6
      </DataArray>
      <DataArray type="Int32" Name="offsets" format="ascii">
2
4
6
8
10
12
14
16
18
20
22
24
26
28
30
32
34
36
38
40
42
44
46
      </DataArray>
      <DataArray type="UInt8" Name="types" format="ascii">
4
4
4
4
4
4
4
4
4
4
4
4
4
4
4
4
4
4
4
4
4
4
4
      </DataArray>
    </Cells>
    <PointData>
      <DataArray type="Float64" NumberOfComponents="3" Name="Displacement" format="ascii">
.000000 .000000 .000000
-.364312 1.520424 .000000
-6.203864 .640183 .000000
-12.107959 -.053878 .000000
-18.049223 -.626044 .000000
-24.011620 -1.133509 .000000
-25.907126 -2.306731 .000000
.000000 .000000 .000000
.004797 -.407442 .000000
-5.914936 -1.318020 .000000
-11.874301 -2.027174 .000000
-17.849416 -2.606881 .000000
-23.827327 -3.115416 .000000
      </DataArray>
      <DataArray type="Float64" NumberOfComponents="3" Name="Reactions" format="ascii">
-16.840383 1.469926 .000000
-.000000 -.000000 .000000
-.000000 -.000000 .000000
-.000000 -.000000 .000000
-.000000 -.000000 .000000
.000000 -.000000 .000000
6.000000 .000000 .000000
10.840383 -1.469926 .000000
-.000000 .000000 .000000
-.000000 .000000 .000000
.000000 .000000 .000000
.000000 .000000 .000000
.000000 .000000 .000000
      </DataArray>
    </PointData>
    <CellData>
    </CellData>
  </Piece>
  </UnstructuredGrid>
</VTKFile>
