<?xml version="1.0"?>
<VTKFile type="UnstructuredGrid">
  <UnstructuredGrid>
  <Piece NumberOfPoints="13"  NumberOfCells="23">
    <Points>
      <DataArray type="Float64" NumberOfComponents="3" format="ascii">
.000000 .000000 .000000
2.998296 .005854 .000000
5.996568 .012338 .000000
8.994814 .019311 .000000
11.993032 .026618 .000000
14.991224 .033797 .000000
15.989977 .534612 .000000
.000000 1.000000 .000000
2.998068 1.005852 .000000
5.996155 1.012336 .000000
8.994265 1.019308 .000000
11.992400 1.026615 .000000
14.990560 1.034096 .000000
      </DataArray>
    </Points>
    <Cells>
      <DataArray type="Int32" Name="connectivity" format="ascii">
0 1
1 2
2 3
3 4
4 5
5 6
0 7
0 8
1 8
1 9
2 9
2 10
3 10
3 11
4 11
4 12
5 12
7 8
8 9
9 10
10 11
11 12
12 6
      </DataArray>
      <DataArray type="Int32" Name="offsets" format="ascii">
2
4
6
8
10
12
14
16
18
20
22
24
26
28
30
32
34
36
38
40
42
44
46
      </DataArray>
      <DataArray type="UInt8" Name="types" format="ascii">
4
4
4
4
4
4
4
4
4
4
4
4
4
4
4
4
4
4
4
4
4
4
4
      </DataArray>
    </Cells>
    <PointData>
      <DataArray type="Float64" NumberOfComponents="3" Name="Displacement" format="ascii">
.000000 .000000 .000000
-.001704 .005854 .000000
-.003432 .012338 .000000
-.005186 .019311 .000000
-.006968 .026618 .000000
-.008776 .033797 .000000
-.010023 .034612 .000000
.000000 .000000 .000000
-.001932 .005852 .000000
-.003845 .012336 .000000
-.005735 .019308 .000000
-.007600 .026615 .000000
-.009440 .034096 .000000
      </DataArray>
      <DataArray type="Float64" NumberOfComponents="3" Name="Reactions" format="ascii">
-.558465 .001252 .000000
-.000000 .000000 .000000
.000000 .000000 .000000
.000000 .000000 .000000
.000000 .000000 .000000
-.000000 .000000 .000000
1.200000 -.000000 .000000
-.641535 -.001252 .000000
-.000000 -.000000 .000000
.000000 -.000000 .000000
-.000000 -.000000 .000000
.000000 -.000000 .000000
-.000000 -.000000 .000000
      </DataArray>
    </PointData>
    <CellData>
    </CellData>
  </Piece>
  </UnstructuredGrid>
</VTKFile>
