<?xml version="1.0"?>
<VTKFile type="UnstructuredGrid">
  <UnstructuredGrid>
  <Piece NumberOfPoints="13"  NumberOfCells="23">
    <Points>
      <DataArray type="Float64" NumberOfComponents="3" format="ascii">
.000000 .000000 .000000
2.997198 .011629 .000000
5.994290 .026119 .000000
8.991260 .042892 .000000
11.988102 .061277 .000000
14.984818 .079987 .000000
15.981640 .583318 .000000
.000000 1.000000 .000000
2.996190 1.011619 .000000
5.992444 1.026106 .000000
8.988780 1.042876 .000000
11.985215 1.061259 .000000
14.981765 1.080517 .000000
      </DataArray>
    </Points>
    <Cells>
      <DataArray type="Int32" Name="connectivity" format="ascii">
0 1
1 2
2 3
3 4
4 5
5 6
0 7
0 8
1 8
1 9
2 9
2 10
3 10
3 11
4 11
4 12
5 12
7 8
8 9
9 10
10 11
11 12
12 6
      </DataArray>
      <DataArray type="Int32" Name="offsets" format="ascii">
2
4
6
8
10
12
14
16
18
20
22
24
26
28
30
32
34
36
38
40
42
44
46
      </DataArray>
      <DataArray type="UInt8" Name="types" format="ascii">
4
4
4
4
4
4
4
4
4
4
4
4
4
4
4
4
4
4
4
4
4
4
4
      </DataArray>
    </Cells>
    <PointData>
      <DataArray type="Float64" NumberOfComponents="3" Name="Displacement" format="ascii">
.000000 .000000 .000000
-.002802 .011629 .000000
-.005710 .026119 .000000
-.008740 .042892 .000000
-.011898 .061277 .000000
-.015182 .079987 .000000
-.018360 .083318 .000000
.000000 .000000 .000000
-.003810 .011619 .000000
-.007556 .026106 .000000
-.011220 .042876 .000000
-.014785 .061259 .000000
-.018235 .080517 .000000
      </DataArray>
      <DataArray type="Float64" NumberOfComponents="3" Name="Reactions" format="ascii">
-.900034 .004886 .000000
.000000 .000000 .000000
.000000 .000000 .000000
.000000 .000000 .000000
.000000 .000000 .000000
-.000000 .000000 .000000
2.160000 .000000 .000000
-1.259966 -.004886 .000000
.000000 -.000000 .000000
.000000 -.000000 .000000
-.000000 -.000000 .000000
-.000000 -.000000 .000000
-.000000 -.000000 .000000
      </DataArray>
    </PointData>
    <CellData>
    </CellData>
  </Piece>
  </UnstructuredGrid>
</VTKFile>
