<?xml version="1.0"?>
<VTKFile type="UnstructuredGrid">
  <UnstructuredGrid>
  <Piece NumberOfPoints="13"  NumberOfCells="23">
    <Points>
      <DataArray type="Float64" NumberOfComponents="3" format="ascii">
.000000 .000000 .000000
3.059798 .800797 .000000
5.474283 2.799904 .000000
7.113308 5.429514 .000000
8.120060 8.316672 .000000
8.751776 11.263059 .000000
8.506069 12.359481 .000000
.000000 1.000000 .000000
2.684623 1.692937 .000000
4.792193 3.501291 .000000
6.255851 5.917629 .000000
7.183373 8.643719 .000000
7.785909 11.513817 .000000
      </DataArray>
    </Points>
    <Cells>
      <DataArray type="Int32" Name="connectivity" format="ascii">
0 1
1 2
2 3
3 4
4 5
5 6
0 7
0 8
1 8
1 9
2 9
2 10
3 10
3 11
4 11
4 12
5 12
7 8
8 9
9 10
10 11
11 12
12 6
      </DataArray>
      <DataArray type="Int32" Name="offsets" format="ascii">
2
4
6
8
10
12
14
16
18
20
22
24
26
28
30
32
34
36
38
40
42
44
46
      </DataArray>
      <DataArray type="UInt8" Name="types" format="ascii">
4
4
4
4
4
4
4
4
4
4
4
4
4
4
4
4
4
4
4
4
4
4
4
      </DataArray>
    </Cells>
    <PointData>
      <DataArray type="Float64" NumberOfComponents="3" Name="Displacement" format="ascii">
.000000 .000000 .000000
.059798 .800797 .000000
-.525717 2.799904 .000000
-1.886692 5.429514 .000000
-3.879940 8.316672 .000000
-6.248224 11.263059 .000000
-7.493931 11.859481 .000000
.000000 .000000 .000000
-.315377 .692937 .000000
-1.207807 2.501291 .000000
-2.744149 4.917629 .000000
-4.816627 7.643719 .000000
-7.214091 10.513817 .000000
      </DataArray>
      <DataArray type="Float64" NumberOfComponents="3" Name="Reactions" format="ascii">
59.978059 16.843981 .000000
.000000 .000000 .000000
.000000 -.000000 .000000
.000000 .000000 .000000
-.000000 -.000000 .000000
-.000000 .000000 .000000
5.280000 -.000000 .000000
-65.258059 -16.843981 .000000
.000000 -.000000 .000000
-.000000 .000000 .000000
-.000000 .000000 .000000
.000000 .000000 .000000
.000000 -.000000 .000000
      </DataArray>
    </PointData>
    <CellData>
    </CellData>
  </Piece>
  </UnstructuredGrid>
</VTKFile>
