<?xml version="1.0"?>
<VTKFile type="UnstructuredGrid">
  <UnstructuredGrid>
  <Piece NumberOfPoints="13"  NumberOfCells="23">
    <Points>
      <DataArray type="Float64" NumberOfComponents="3" format="ascii">
.000000 .000000 .000000
2.996794 .017511 .000000
5.993321 .042291 .000000
8.989528 .073007 .000000
11.985384 .108010 .000000
14.980898 .144668 .000000
15.974751 .652886 .000000
.000000 1.000000 .000000
2.994292 1.017487 .000000
5.988685 1.042253 .000000
8.983237 1.072955 .000000
11.978010 1.107948 .000000
14.973057 1.145341 .000000
      </DataArray>
    </Points>
    <Cells>
      <DataArray type="Int32" Name="connectivity" format="ascii">
0 1
1 2
2 3
3 4
4 5
5 6
0 7
0 8
1 8
1 9
2 9
2 10
3 10
3 11
4 11
4 12
5 12
7 8
8 9
9 10
10 11
11 12
12 6
      </DataArray>
      <DataArray type="Int32" Name="offsets" format="ascii">
2
4
6
8
10
12
14
16
18
20
22
24
26
28
30
32
34
36
38
40
42
44
46
      </DataArray>
      <DataArray type="UInt8" Name="types" format="ascii">
4
4
4
4
4
4
4
4
4
4
4
4
4
4
4
4
4
4
4
4
4
4
4
      </DataArray>
    </Cells>
    <PointData>
      <DataArray type="Float64" NumberOfComponents="3" Name="Displacement" format="ascii">
.000000 .000000 .000000
-.003206 .017511 .000000
-.006679 .042291 .000000
-.010472 .073007 .000000
-.014616 .108010 .000000
-.019102 .144668 .000000
-.025249 .152886 .000000
.000000 .000000 .000000
-.005708 .017487 .000000
-.011315 .042253 .000000
-.016763 .072955 .000000
-.021990 .107948 .000000
-.026943 .145341 .000000
      </DataArray>
      <DataArray type="Float64" NumberOfComponents="3" Name="Reactions" format="ascii">
-.999687 .010981 .000000
.000000 .000000 .000000
.000000 .000000 .000000
.000000 .000000 .000000
.000000 .000000 .000000
-.000000 .000000 .000000
2.880000 .000000 .000000
-1.880313 -.010981 .000000
.000000 -.000000 .000000
.000000 -.000000 .000000
-.000000 -.000000 .000000
-.000000 -.000000 .000000
-.000000 -.000000 .000000
      </DataArray>
    </PointData>
    <CellData>
    </CellData>
  </Piece>
  </UnstructuredGrid>
</VTKFile>
