<?xml version="1.0"?>
<VTKFile type="UnstructuredGrid">
  <UnstructuredGrid>
  <Piece NumberOfPoints="13"  NumberOfCells="23">
    <Points>
      <DataArray type="Float64" NumberOfComponents="3" format="ascii">
.000000 .000000 .000000
2.997701 .008561 .000000
5.995346 .018563 .000000
8.992932 .029699 .000000
11.990454 .041624 .000000
14.987915 .053543 .000000
15.985869 .555284 .000000
.000000 1.000000 .000000
2.997185 1.008555 .000000
5.994409 1.018557 .000000
8.991680 1.029692 .000000
11.989004 1.041616 .000000
14.986386 1.053959 .000000
      </DataArray>
    </Points>
    <Cells>
      <DataArray type="Int32" Name="connectivity" format="ascii">
0 1
1 2
2 3
3 4
4 5
5 6
0 7
0 8
1 8
1 9
2 9
2 10
3 10
3 11
4 11
4 12
5 12
7 8
8 9
9 10
10 11
11 12
12 6
      </DataArray>
      <DataArray type="Int32" Name="offsets" format="ascii">
2
4
6
8
10
12
14
16
18
20
22
24
26
28
30
32
34
36
38
40
42
44
46
      </DataArray>
      <DataArray type="UInt8" Name="types" format="ascii">
4
4
4
4
4
4
4
4
4
4
4
4
4
4
4
4
4
4
4
4
4
4
4
      </DataArray>
    </Cells>
    <PointData>
      <DataArray type="Float64" NumberOfComponents="3" Name="Displacement" format="ascii">
.000000 .000000 .000000
-.002299 .008561 .000000
-.004654 .018563 .000000
-.007068 .029699 .000000
-.009546 .041624 .000000
-.012085 .053543 .000000
-.014131 .055284 .000000
.000000 .000000 .000000
-.002815 .008555 .000000
-.005591 .018557 .000000
-.008320 .029692 .000000
-.010996 .041616 .000000
-.013614 .053959 .000000
      </DataArray>
      <DataArray type="Float64" NumberOfComponents="3" Name="Reactions" format="ascii">
-.747123 .002663 .000000
-.000000 -.000000 .000000
.000000 .000000 .000000
.000000 .000000 .000000
-.000000 .000000 .000000
-.000000 .000000 .000000
1.680000 .000000 .000000
-.932877 -.002663 .000000
-.000000 .000000 .000000
-.000000 -.000000 .000000
.000000 -.000000 .000000
.000000 -.000000 .000000
-.000000 -.000000 .000000
      </DataArray>
    </PointData>
    <CellData>
    </CellData>
  </Piece>
  </UnstructuredGrid>
</VTKFile>
