<?xml version="1.0"?>
<VTKFile type="UnstructuredGrid">
  <UnstructuredGrid>
  <Piece NumberOfPoints="13"  NumberOfCells="23">
    <Points>
      <DataArray type="Float64" NumberOfComponents="3" format="ascii">
.000000 .000000 .000000
2.998950 .003388 .000000
5.997893 .006975 .000000
8.996827 .010713 .000000
11.995752 .014553 .000000
14.994670 .018265 .000000
15.994017 .518563 .000000
.000000 1.000000 .000000
2.998877 1.003387 .000000
5.997762 1.006974 .000000
8.996654 1.010712 .000000
11.995554 1.014552 .000000
14.994462 1.018444 .000000
      </DataArray>
    </Points>
    <Cells>
      <DataArray type="Int32" Name="connectivity" format="ascii">
0 1
1 2
2 3
3 4
4 5
5 6
0 7
0 8
1 8
1 9
2 9
2 10
3 10
3 11
4 11
4 12
5 12
7 8
8 9
9 10
10 11
11 12
12 6
      </DataArray>
      <DataArray type="Int32" Name="offsets" format="ascii">
2
4
6
8
10
12
14
16
18
20
22
24
26
28
30
32
34
36
38
40
42
44
46
      </DataArray>
      <DataArray type="UInt8" Name="types" format="ascii">
4
4
4
4
4
4
4
4
4
4
4
4
4
4
4
4
4
4
4
4
4
4
4
      </DataArray>
    </Cells>
    <PointData>
      <DataArray type="Float64" NumberOfComponents="3" Name="Displacement" format="ascii">
.000000 .000000 .000000
-.001050 .003388 .000000
-.002107 .006975 .000000
-.003173 .010713 .000000
-.004248 .014553 .000000
-.005330 .018265 .000000
-.005983 .018563 .000000
.000000 .000000 .000000
-.001123 .003387 .000000
-.002238 .006974 .000000
-.003346 .010712 .000000
-.004446 .014552 .000000
-.005538 .018444 .000000
      </DataArray>
      <DataArray type="Float64" NumberOfComponents="3" Name="Reactions" format="ascii">
-.346635 .000422 .000000
-.000000 -.000000 .000000
.000000 .000000 .000000
.000000 .000000 .000000
-.000000 -.000000 .000000
-.000000 -.000000 .000000
.720000 .000000 .000000
-.373365 -.000422 .000000
-.000000 .000000 .000000
.000000 -.000000 .000000
-.000000 -.000000 .000000
-.000000 .000000 .000000
.000000 .000000 .000000
      </DataArray>
    </PointData>
    <CellData>
    </CellData>
  </Piece>
  </UnstructuredGrid>
</VTKFile>
