<?xml version="1.0"?>
<VTKFile type="UnstructuredGrid">
  <UnstructuredGrid>
  <Piece NumberOfPoints="13"  NumberOfCells="23">
    <Points>
      <DataArray type="Float64" NumberOfComponents="3" format="ascii">
.000000 .000000 .000000
3.001656 .047056 .000000
6.000865 .145554 .000000
8.996580 .287803 .000000
11.988419 .462750 .000000
14.976769 .655680 .000000
15.943767 1.212328 .000000
.000000 1.000000 .000000
2.984681 1.046767 .000000
5.968700 1.144839 .000000
8.952187 1.286582 .000000
11.935703 1.461101 .000000
14.920192 1.654972 .000000
      </DataArray>
    </Points>
    <Cells>
      <DataArray type="Int32" Name="connectivity" format="ascii">
0 1
1 2
2 3
3 4
4 5
5 6
0 7
0 8
1 8
1 9
2 9
2 10
3 10
3 11
4 11
4 12
5 12
7 8
8 9
9 10
10 11
11 12
12 6
      </DataArray>
      <DataArray type="Int32" Name="offsets" format="ascii">
2
4
6
8
10
12
14
16
18
20
22
24
26
28
30
32
34
36
38
40
42
44
46
      </DataArray>
      <DataArray type="UInt8" Name="types" format="ascii">
4
4
4
4
4
4
4
4
4
4
4
4
4
4
4
4
4
4
4
4
4
4
4
      </DataArray>
    </Cells>
    <PointData>
      <DataArray type="Float64" NumberOfComponents="3" Name="Displacement" format="ascii">
.000000 .000000 .000000
.001656 .047056 .000000
.000865 .145554 .000000
-.003420 .287803 .000000
-.011581 .462750 .000000
-.023231 .655680 .000000
-.056233 .712328 .000000
.000000 .000000 .000000
-.015319 .046767 .000000
-.031300 .144839 .000000
-.047813 .286582 .000000
-.064297 .461101 .000000
-.079808 .654972 .000000
      </DataArray>
      <DataArray type="Float64" NumberOfComponents="3" Name="Reactions" format="ascii">
.866300 .077503 .000000
-.000000 -.000000 .000000
.000000 .000000 .000000
-.000000 -.000000 .000000
.000000 .000000 .000000
-.000000 -.000000 .000000
4.080000 -.000000 .000000
-4.946300 -.077503 .000000
.000000 -.000000 .000000
.000000 .000000 .000000
-.000000 -.000000 .000000
.000000 .000000 .000000
-.000000 .000000 .000000
      </DataArray>
    </PointData>
    <CellData>
    </CellData>
  </Piece>
  </UnstructuredGrid>
</VTKFile>
