<?xml version="1.0"?>
<VTKFile type="UnstructuredGrid">
  <UnstructuredGrid>
  <Piece NumberOfPoints="13"  NumberOfCells="23">
    <Points>
      <DataArray type="Float64" NumberOfComponents="3" format="ascii">
.000000 .000000 .000000
2.997990 .007172 .000000
5.995941 .015321 .000000
8.993852 .024232 .000000
11.991721 .033672 .000000
14.989548 .043024 .000000
15.987934 .544239 .000000
.000000 1.000000 .000000
2.997638 1.007168 .000000
5.995304 1.015316 .000000
8.993003 1.024228 .000000
11.990739 1.033667 .000000
14.988515 1.043382 .000000
      </DataArray>
    </Points>
    <Cells>
      <DataArray type="Int32" Name="connectivity" format="ascii">
0 1
1 2
2 3
3 4
4 5
5 6
0 7
0 8
1 8
1 9
2 9
2 10
3 10
3 11
4 11
4 12
5 12
7 8
8 9
9 10
10 11
11 12
12 6
      </DataArray>
      <DataArray type="Int32" Name="offsets" format="ascii">
2
4
6
8
10
12
14
16
18
20
22
24
26
28
30
32
34
36
38
40
42
44
46
      </DataArray>
      <DataArray type="UInt8" Name="types" format="ascii">
4
4
4
4
4
4
4
4
4
4
4
4
4
4
4
4
4
4
4
4
4
4
4
      </DataArray>
    </Cells>
    <PointData>
      <DataArray type="Float64" NumberOfComponents="3" Name="Displacement" format="ascii">
.000000 .000000 .000000
-.002010 .007172 .000000
-.004059 .015321 .000000
-.006148 .024232 .000000
-.008279 .033672 .000000
-.010452 .043024 .000000
-.012066 .044239 .000000
.000000 .000000 .000000
-.002362 .007168 .000000
-.004696 .015316 .000000
-.006997 .024228 .000000
-.009261 .033667 .000000
-.011485 .043382 .000000
      </DataArray>
      <DataArray type="Float64" NumberOfComponents="3" Name="Reactions" format="ascii">
-.656296 .001874 .000000
.000000 .000000 .000000
.000000 .000000 .000000
.000000 -.000000 .000000
-.000000 -.000000 .000000
.000000 .000000 .000000
1.440000 -.000000 .000000
-.783704 -.001874 .000000
.000000 -.000000 .000000
-.000000 -.000000 .000000
-.000000 .000000 .000000
.000000 .000000 .000000
-.000000 .000000 .000000
      </DataArray>
    </PointData>
    <CellData>
    </CellData>
  </Piece>
  </UnstructuredGrid>
</VTKFile>
