<?xml version="1.0"?>
<VTKFile type="UnstructuredGrid">
  <UnstructuredGrid>
  <Piece NumberOfPoints="13"  NumberOfCells="23">
    <Points>
      <DataArray type="Float64" NumberOfComponents="3" format="ascii">
.000000 .000000 .000000
2.997081 .023412 .000000
5.993646 .060682 .000000
8.989552 .109456 .000000
11.984731 .166656 .000000
14.979208 .227784 .000000
15.969002 .743287 .000000
.000000 1.000000 .000000
2.992388 1.023364 .000000
5.984873 1.060593 .000000
8.977571 1.109323 .000000
11.970615 1.166489 .000000
14.964144 1.228478 .000000
      </DataArray>
    </Points>
    <Cells>
      <DataArray type="Int32" Name="connectivity" format="ascii">
0 1
1 2
2 3
3 4
4 5
5 6
0 7
0 8
1 8
1 9
2 9
2 10
3 10
3 11
4 11
4 12
5 12
7 8
8 9
9 10
10 11
11 12
12 6
      </DataArray>
      <DataArray type="Int32" Name="offsets" format="ascii">
2
4
6
8
10
12
14
16
18
20
22
24
26
28
30
32
34
36
38
40
42
44
46
      </DataArray>
      <DataArray type="UInt8" Name="types" format="ascii">
4
4
4
4
4
4
4
4
4
4
4
4
4
4
4
4
4
4
4
4
4
4
4
      </DataArray>
    </Cells>
    <PointData>
      <DataArray type="Float64" NumberOfComponents="3" Name="Displacement" format="ascii">
.000000 .000000 .000000
-.002919 .023412 .000000
-.006354 .060682 .000000
-.010448 .109456 .000000
-.015269 .166656 .000000
-.020792 .227784 .000000
-.030998 .243287 .000000
.000000 .000000 .000000
-.007612 .023364 .000000
-.015127 .060593 .000000
-.022429 .109323 .000000
-.029385 .166489 .000000
-.035856 .228478 .000000
      </DataArray>
      <DataArray type="Float64" NumberOfComponents="3" Name="Reactions" format="ascii">
-.862555 .019499 .000000
.000000 .000000 .000000
.000000 .000000 .000000
.000000 .000000 .000000
-.000000 .000000 .000000
.000000 .000000 .000000
3.360000 -.000000 .000000
-2.497445 -.019499 .000000
.000000 -.000000 .000000
-.000000 -.000000 .000000
.000000 -.000000 .000000
.000000 -.000000 .000000
-.000000 -.000000 .000000
      </DataArray>
    </PointData>
    <CellData>
    </CellData>
  </Piece>
  </UnstructuredGrid>
</VTKFile>
