<?xml version="1.0"?>
<VTKFile type="UnstructuredGrid">
  <UnstructuredGrid>
  <Piece NumberOfPoints="13"  NumberOfCells="23">
    <Points>
      <DataArray type="Float64" NumberOfComponents="3" format="ascii">
.000000 .000000 .000000
3.069591 .656786 .000000
5.701719 2.326092 .000000
7.751520 4.633237 .000000
9.290279 7.266734 .000000
10.508506 10.019506 .000000
10.488981 11.141673 .000000
.000000 1.000000 .000000
2.749431 1.581153 .000000
5.112499 3.113856 .000000
6.987086 5.261160 .000000
8.432616 7.767783 .000000
9.612267 10.459383 .000000
      </DataArray>
    </Points>
    <Cells>
      <DataArray type="Int32" Name="connectivity" format="ascii">
0 1
1 2
2 3
3 4
4 5
5 6
0 7
0 8
1 8
1 9
2 9
2 10
3 10
3 11
4 11
4 12
5 12
7 8
8 9
9 10
10 11
11 12
12 6
      </DataArray>
      <DataArray type="Int32" Name="offsets" format="ascii">
2
4
6
8
10
12
14
16
18
20
22
24
26
28
30
32
34
36
38
40
42
44
46
      </DataArray>
      <DataArray type="UInt8" Name="types" format="ascii">
4
4
4
4
4
4
4
4
4
4
4
4
4
4
4
4
4
4
4
4
4
4
4
      </DataArray>
    </Cells>
    <PointData>
      <DataArray type="Float64" NumberOfComponents="3" Name="Displacement" format="ascii">
.000000 .000000 .000000
.069591 .656786 .000000
-.298281 2.326092 .000000
-1.248480 4.633237 .000000
-2.709721 7.266734 .000000
-4.491494 10.019506 .000000
-5.511019 10.641673 .000000
.000000 .000000 .000000
-.250569 .581153 .000000
-.887501 2.113856 .000000
-2.012914 4.261160 .000000
-3.567384 6.767783 .000000
-5.387733 9.459383 .000000
      </DataArray>
      <DataArray type="Float64" NumberOfComponents="3" Name="Reactions" format="ascii">
51.114031 11.869401 .000000
-.000000 -.000000 .000000
.000000 .000000 .000000
.000000 -.000000 .000000
-.000000 .000000 .000000
-.000000 .000000 .000000
5.040000 -.000000 .000000
-56.154031 -11.869401 .000000
.000000 .000000 .000000
.000000 -.000000 .000000
-.000000 -.000000 .000000
.000000 .000000 .000000
.000000 .000000 .000000
      </DataArray>
    </PointData>
    <CellData>
    </CellData>
  </Piece>
  </UnstructuredGrid>
</VTKFile>
