<?xml version="1.0"?>
<VTKFile type="UnstructuredGrid">
  <UnstructuredGrid>
  <Piece NumberOfPoints="13"  NumberOfCells="23">
    <Points>
      <DataArray type="Float64" NumberOfComponents="3" format="ascii">
.000000 .000000 .000000
3.047784 .268350 .000000
6.015749 .973881 .000000
8.860735 2.036830 .000000
11.579096 3.352198 .000000
14.204646 4.804268 .000000
14.853589 5.714866 .000000
.000000 1.000000 .000000
2.907109 1.254269 .000000
5.748858 1.933656 .000000
8.494316 2.963840 .000000
11.146548 4.250925 .000000
13.741045 5.690251 .000000
      </DataArray>
    </Points>
    <Cells>
      <DataArray type="Int32" Name="connectivity" format="ascii">
0 1
1 2
2 3
3 4
4 5
5 6
0 7
0 8
1 8
1 9
2 9
2 10
3 10
3 11
4 11
4 12
5 12
7 8
8 9
9 10
10 11
11 12
12 6
      </DataArray>
      <DataArray type="Int32" Name="offsets" format="ascii">
2
4
6
8
10
12
14
16
18
20
22
24
26
28
30
32
34
36
38
40
42
44
46
      </DataArray>
      <DataArray type="UInt8" Name="types" format="ascii">
4
4
4
4
4
4
4
4
4
4
4
4
4
4
4
4
4
4
4
4
4
4
4
      </DataArray>
    </Cells>
    <PointData>
      <DataArray type="Float64" NumberOfComponents="3" Name="Displacement" format="ascii">
.000000 .000000 .000000
.047784 .268350 .000000
.015749 .973881 .000000
-.139265 2.036830 .000000
-.420904 3.352198 .000000
-.795354 4.804268 .000000
-1.146411 5.214866 .000000
.000000 .000000 .000000
-.092891 .254269 .000000
-.251142 .933656 .000000
-.505684 1.963840 .000000
-.853452 3.250925 .000000
-1.258955 4.690251 .000000
      </DataArray>
      <DataArray type="Float64" NumberOfComponents="3" Name="Reactions" format="ascii">
21.499788 2.279308 .000000
.000000 .000000 .000000
.000000 .000000 .000000
.000000 .000000 .000000
.000000 .000000 .000000
-.000000 .000000 .000000
4.560000 -.000000 .000000
-26.059788 -2.279308 .000000
.000000 .000000 .000000
-.000000 -.000000 .000000
.000000 -.000000 .000000
-.000000 -.000000 .000000
.000000 -.000000 .000000
      </DataArray>
    </PointData>
    <CellData>
    </CellData>
  </Piece>
  </UnstructuredGrid>
</VTKFile>
