<?xml version="1.0"?>
<VTKFile type="UnstructuredGrid">
  <UnstructuredGrid>
  <Piece NumberOfPoints="13"  NumberOfCells="23">
    <Points>
      <DataArray type="Float64" NumberOfComponents="3" format="ascii">
.000000 .000000 .000000
3.010622 .083220 .000000
6.013243 .282694 .000000
9.003778 .581484 .000000
11.981114 .954625 .000000
14.947408 1.369981 .000000
15.871803 1.995321 .000000
.000000 1.000000 .000000
2.972656 1.082058 .000000
5.940977 1.279544 .000000
8.903727 1.575880 .000000
11.862041 1.946901 .000000
14.819386 2.362539 .000000
      </DataArray>
    </Points>
    <Cells>
      <DataArray type="Int32" Name="connectivity" format="ascii">
0 1
1 2
2 3
3 4
4 5
5 6
0 7
0 8
1 8
1 9
2 9
2 10
3 10
3 11
4 11
4 12
5 12
7 8
8 9
9 10
10 11
11 12
12 6
      </DataArray>
      <DataArray type="Int32" Name="offsets" format="ascii">
2
4
6
8
10
12
14
16
18
20
22
24
26
28
30
32
34
36
38
40
42
44
46
      </DataArray>
      <DataArray type="UInt8" Name="types" format="ascii">
4
4
4
4
4
4
4
4
4
4
4
4
4
4
4
4
4
4
4
4
4
4
4
      </DataArray>
    </Cells>
    <PointData>
      <DataArray type="Float64" NumberOfComponents="3" Name="Displacement" format="ascii">
.000000 .000000 .000000
.010622 .083220 .000000
.013243 .282694 .000000
.003778 .581484 .000000
-.018886 .954625 .000000
-.052592 1.369981 .000000
-.128197 1.495321 .000000
.000000 .000000 .000000
-.027344 .082058 .000000
-.059023 .279544 .000000
-.096273 .575880 .000000
-.137959 .946901 .000000
-.180614 1.362539 .000000
      </DataArray>
      <DataArray type="Float64" NumberOfComponents="3" Name="Reactions" format="ascii">
4.299786 .237943 .000000
.000000 .000000 .000000
.000000 .000000 .000000
.000000 .000000 .000000
.000000 .000000 .000000
-.000000 .000000 .000000
4.320000 -.000000 .000000
-8.619786 -.237943 .000000
.000000 -.000000 .000000
.000000 -.000000 .000000
-.000000 -.000000 .000000
-.000000 -.000000 .000000
-.000000 -.000000 .000000
      </DataArray>
    </PointData>
    <CellData>
    </CellData>
  </Piece>
  </UnstructuredGrid>
</VTKFile>
